V -t * -v 1.0a5 -a 0
A -t * -n 1 -p 0 -o 0x7fffffff -c 30 -a 1
A -t * -h 1 -m 1073741823 -s 0
c -t * -i 1 -n red
c -t * -i 2 -n blue
n -t * -a 4 -s 4 -S UP -v circle -c black -i black
n -t * -a 0 -s 0 -S UP -v circle -c black -i black
n -t * -a 5 -s 5 -S UP -v circle -c black -i black
n -t * -a 1 -s 1 -S UP -v circle -c black -i black
n -t * -a 6 -s 6 -S UP -v circle -c black -i black
n -t * -a 2 -s 2 -S UP -v circle -c black -i black
n -t * -a 7 -s 7 -S UP -v circle -c black -i black
n -t * -a 3 -s 3 -S UP -v circle -c black -i black
l -t * -s 0 -d 1 -S UP -r 10000000 -D 0.01 -c black -o left-down
l -t * -s 0 -d 7 -S UP -r 5000000 -D 0.01 -c black -o right-down
l -t * -s 1 -d 2 -S UP -r 10000000 -D 0.01 -c black -o down
l -t * -s 2 -d 3 -S UP -r 10000000 -D 0.01 -c black -o down
l -t * -s 3 -d 4 -S UP -r 10000000 -D 0.01 -c black -o right-down
l -t * -s 7 -d 6 -S UP -r 5000000 -D 0.01 -c black -o down
l -t * -s 6 -d 5 -S UP -r 5000000 -D 0.01 -c black -o down
l -t * -s 5 -d 4 -S UP -r 5000000 -D 0.01 -c black -o left-down
+ -t 0.000169788487334637 -s 0 -d 1 -p rtProtoLS -e 100 -c 0 -i 1 -a 0 -x {0.2 1.1 -1 ------- null}
- -t 0.000169788487334637 -s 0 -d 1 -p rtProtoLS -e 100 -c 0 -i 1 -a 0 -x {0.2 1.1 -1 ------- null}
h -t 0.000169788487334637 -s 0 -d 1 -p rtProtoLS -e 100 -c 0 -i 1 -a 0 -x {0.2 1.1 -1 ------- null}
+ -t 0.000169788487334637 -s 0 -d 7 -p rtProtoLS -e 100 -c 0 -i 2 -a 0 -x {0.2 7.1 -1 ------- null}
- -t 0.000169788487334637 -s 0 -d 7 -p rtProtoLS -e 100 -c 0 -i 2 -a 0 -x {0.2 7.1 -1 ------- null}
h -t 0.000169788487334637 -s 0 -d 7 -p rtProtoLS -e 100 -c 0 -i 2 -a 0 -x {0.2 7.1 -1 ------- null}
+ -t 0.00710233021858257 -s 2 -d 1 -p rtProtoLS -e 100 -c 0 -i 3 -a 0 -x {2.1 1.1 -1 ------- null}
- -t 0.00710233021858257 -s 2 -d 1 -p rtProtoLS -e 100 -c 0 -i 3 -a 0 -x {2.1 1.1 -1 ------- null}
h -t 0.00710233021858257 -s 2 -d 1 -p rtProtoLS -e 100 -c 0 -i 3 -a 0 -x {2.1 1.1 -1 ------- null}
+ -t 0.00710233021858257 -s 2 -d 3 -p rtProtoLS -e 100 -c 0 -i 4 -a 0 -x {2.1 3.1 -1 ------- null}
- -t 0.00710233021858257 -s 2 -d 3 -p rtProtoLS -e 100 -c 0 -i 4 -a 0 -x {2.1 3.1 -1 ------- null}
h -t 0.00710233021858257 -s 2 -d 3 -p rtProtoLS -e 100 -c 0 -i 4 -a 0 -x {2.1 3.1 -1 ------- null}
r -t 0.0102497884873346 -s 0 -d 1 -p rtProtoLS -e 100 -c 0 -i 1 -a 0 -x {0.2 1.1 -1 ------- null}
+ -t 0.0102497884873346 -s 1 -d 0 -p rtProtoLS -e 20 -c 0 -i 5 -a 0 -x {1.1 0.2 -1 ------- null}
- -t 0.0102497884873346 -s 1 -d 0 -p rtProtoLS -e 20 -c 0 -i 5 -a 0 -x {1.1 0.2 -1 ------- null}
h -t 0.0102497884873346 -s 1 -d 0 -p rtProtoLS -e 20 -c 0 -i 5 -a 0 -x {1.1 0.2 -1 ------- null}
+ -t 0.0102497884873346 -s 1 -d 2 -p rtProtoLS -e 100 -c 0 -i 6 -a 0 -x {1.1 2.1 -1 ------- null}
- -t 0.0102497884873346 -s 1 -d 2 -p rtProtoLS -e 100 -c 0 -i 6 -a 0 -x {1.1 2.1 -1 ------- null}
h -t 0.0102497884873346 -s 1 -d 2 -p rtProtoLS -e 100 -c 0 -i 6 -a 0 -x {1.1 2.1 -1 ------- null}
r -t 0.0103297884873346 -s 0 -d 7 -p rtProtoLS -e 100 -c 0 -i 2 -a 0 -x {0.2 7.1 -1 ------- null}
+ -t 0.0103297884873346 -s 7 -d 0 -p rtProtoLS -e 20 -c 0 -i 7 -a 0 -x {7.1 0.2 -1 ------- null}
- -t 0.0103297884873346 -s 7 -d 0 -p rtProtoLS -e 20 -c 0 -i 7 -a 0 -x {7.1 0.2 -1 ------- null}
h -t 0.0103297884873346 -s 7 -d 0 -p rtProtoLS -e 20 -c 0 -i 7 -a 0 -x {7.1 0.2 -1 ------- null}
+ -t 0.0103297884873346 -s 7 -d 6 -p rtProtoLS -e 100 -c 0 -i 8 -a 0 -x {7.1 6.1 -1 ------- null}
- -t 0.0103297884873346 -s 7 -d 6 -p rtProtoLS -e 100 -c 0 -i 8 -a 0 -x {7.1 6.1 -1 ------- null}
h -t 0.0103297884873346 -s 7 -d 6 -p rtProtoLS -e 100 -c 0 -i 8 -a 0 -x {7.1 6.1 -1 ------- null}
r -t 0.0171823302185826 -s 2 -d 1 -p rtProtoLS -e 100 -c 0 -i 3 -a 0 -x {2.1 1.1 -1 ------- null}
+ -t 0.0171823302185826 -s 1 -d 2 -p rtProtoLS -e 20 -c 0 -i 9 -a 0 -x {1.1 2.1 -1 ------- null}
- -t 0.0171823302185826 -s 1 -d 2 -p rtProtoLS -e 20 -c 0 -i 9 -a 0 -x {1.1 2.1 -1 ------- null}
h -t 0.0171823302185826 -s 1 -d 2 -p rtProtoLS -e 20 -c 0 -i 9 -a 0 -x {1.1 2.1 -1 ------- null}
+ -t 0.0171823302185826 -s 1 -d 0 -p rtProtoLS -e 100 -c 0 -i 10 -a 0 -x {1.1 0.2 -1 ------- null}
- -t 0.0171823302185826 -s 1 -d 0 -p rtProtoLS -e 100 -c 0 -i 10 -a 0 -x {1.1 0.2 -1 ------- null}
h -t 0.0171823302185826 -s 1 -d 0 -p rtProtoLS -e 100 -c 0 -i 10 -a 0 -x {1.1 0.2 -1 ------- null}
r -t 0.0171823302185826 -s 2 -d 3 -p rtProtoLS -e 100 -c 0 -i 4 -a 0 -x {2.1 3.1 -1 ------- null}
+ -t 0.0171823302185826 -s 3 -d 2 -p rtProtoLS -e 20 -c 0 -i 11 -a 0 -x {3.1 2.1 -1 ------- null}
- -t 0.0171823302185826 -s 3 -d 2 -p rtProtoLS -e 20 -c 0 -i 11 -a 0 -x {3.1 2.1 -1 ------- null}
h -t 0.0171823302185826 -s 3 -d 2 -p rtProtoLS -e 20 -c 0 -i 11 -a 0 -x {3.1 2.1 -1 ------- null}
+ -t 0.0171823302185826 -s 3 -d 4 -p rtProtoLS -e 100 -c 0 -i 12 -a 0 -x {3.1 4.2 -1 ------- null}
- -t 0.0171823302185826 -s 3 -d 4 -p rtProtoLS -e 100 -c 0 -i 12 -a 0 -x {3.1 4.2 -1 ------- null}
h -t 0.0171823302185826 -s 3 -d 4 -p rtProtoLS -e 100 -c 0 -i 12 -a 0 -x {3.1 4.2 -1 ------- null}
r -t 0.0202657884873346 -s 1 -d 0 -p rtProtoLS -e 20 -c 0 -i 5 -a 0 -x {1.1 0.2 -1 ------- null}
r -t 0.0203297884873346 -s 1 -d 2 -p rtProtoLS -e 100 -c 0 -i 6 -a 0 -x {1.1 2.1 -1 ------- null}
+ -t 0.0203297884873346 -s 2 -d 1 -p rtProtoLS -e 20 -c 0 -i 13 -a 0 -x {2.1 1.1 -1 ------- null}
- -t 0.0203297884873346 -s 2 -d 1 -p rtProtoLS -e 20 -c 0 -i 13 -a 0 -x {2.1 1.1 -1 ------- null}
h -t 0.0203297884873346 -s 2 -d 1 -p rtProtoLS -e 20 -c 0 -i 13 -a 0 -x {2.1 1.1 -1 ------- null}
+ -t 0.0203297884873346 -s 2 -d 3 -p rtProtoLS -e 100 -c 0 -i 14 -a 0 -x {2.1 3.1 -1 ------- null}
- -t 0.0203297884873346 -s 2 -d 3 -p rtProtoLS -e 100 -c 0 -i 14 -a 0 -x {2.1 3.1 -1 ------- null}
h -t 0.0203297884873346 -s 2 -d 3 -p rtProtoLS -e 100 -c 0 -i 14 -a 0 -x {2.1 3.1 -1 ------- null}
r -t 0.0203617884873346 -s 7 -d 0 -p rtProtoLS -e 20 -c 0 -i 7 -a 0 -x {7.1 0.2 -1 ------- null}
r -t 0.0204897884873346 -s 7 -d 6 -p rtProtoLS -e 100 -c 0 -i 8 -a 0 -x {7.1 6.1 -1 ------- null}
+ -t 0.0204897884873346 -s 6 -d 7 -p rtProtoLS -e 20 -c 0 -i 15 -a 0 -x {6.1 7.1 -1 ------- null}
- -t 0.0204897884873346 -s 6 -d 7 -p rtProtoLS -e 20 -c 0 -i 15 -a 0 -x {6.1 7.1 -1 ------- null}
h -t 0.0204897884873346 -s 6 -d 7 -p rtProtoLS -e 20 -c 0 -i 15 -a 0 -x {6.1 7.1 -1 ------- null}
+ -t 0.0204897884873346 -s 6 -d 5 -p rtProtoLS -e 100 -c 0 -i 16 -a 0 -x {6.1 5.1 -1 ------- null}
- -t 0.0204897884873346 -s 6 -d 5 -p rtProtoLS -e 100 -c 0 -i 16 -a 0 -x {6.1 5.1 -1 ------- null}
h -t 0.0204897884873346 -s 6 -d 5 -p rtProtoLS -e 100 -c 0 -i 16 -a 0 -x {6.1 5.1 -1 ------- null}
r -t 0.0271983302185826 -s 1 -d 2 -p rtProtoLS -e 20 -c 0 -i 9 -a 0 -x {1.1 2.1 -1 ------- null}
r -t 0.0271983302185826 -s 3 -d 2 -p rtProtoLS -e 20 -c 0 -i 11 -a 0 -x {3.1 2.1 -1 ------- null}
r -t 0.0272623302185826 -s 1 -d 0 -p rtProtoLS -e 100 -c 0 -i 10 -a 0 -x {1.1 0.2 -1 ------- null}
+ -t 0.0272623302185826 -s 0 -d 1 -p rtProtoLS -e 20 -c 0 -i 17 -a 0 -x {0.2 1.1 -1 ------- null}
- -t 0.0272623302185826 -s 0 -d 1 -p rtProtoLS -e 20 -c 0 -i 17 -a 0 -x {0.2 1.1 -1 ------- null}
h -t 0.0272623302185826 -s 0 -d 1 -p rtProtoLS -e 20 -c 0 -i 17 -a 0 -x {0.2 1.1 -1 ------- null}
+ -t 0.0272623302185826 -s 0 -d 7 -p rtProtoLS -e 100 -c 0 -i 18 -a 0 -x {0.2 7.1 -1 ------- null}
- -t 0.0272623302185826 -s 0 -d 7 -p rtProtoLS -e 100 -c 0 -i 18 -a 0 -x {0.2 7.1 -1 ------- null}
h -t 0.0272623302185826 -s 0 -d 7 -p rtProtoLS -e 100 -c 0 -i 18 -a 0 -x {0.2 7.1 -1 ------- null}
r -t 0.0272623302185826 -s 3 -d 4 -p rtProtoLS -e 100 -c 0 -i 12 -a 0 -x {3.1 4.2 -1 ------- null}
+ -t 0.0272623302185826 -s 4 -d 3 -p rtProtoLS -e 20 -c 0 -i 19 -a 0 -x {4.2 3.1 -1 ------- null}
- -t 0.0272623302185826 -s 4 -d 3 -p rtProtoLS -e 20 -c 0 -i 19 -a 0 -x {4.2 3.1 -1 ------- null}
h -t 0.0272623302185826 -s 4 -d 3 -p rtProtoLS -e 20 -c 0 -i 19 -a 0 -x {4.2 3.1 -1 ------- null}
+ -t 0.0272623302185826 -s 4 -d 5 -p rtProtoLS -e 100 -c 0 -i 20 -a 0 -x {4.2 5.1 -1 ------- null}
- -t 0.0272623302185826 -s 4 -d 5 -p rtProtoLS -e 100 -c 0 -i 20 -a 0 -x {4.2 5.1 -1 ------- null}
h -t 0.0272623302185826 -s 4 -d 5 -p rtProtoLS -e 100 -c 0 -i 20 -a 0 -x {4.2 5.1 -1 ------- null}
r -t 0.0303457884873346 -s 2 -d 1 -p rtProtoLS -e 20 -c 0 -i 13 -a 0 -x {2.1 1.1 -1 ------- null}
r -t 0.0304097884873346 -s 2 -d 3 -p rtProtoLS -e 100 -c 0 -i 14 -a 0 -x {2.1 3.1 -1 ------- null}
+ -t 0.0304097884873346 -s 3 -d 2 -p rtProtoLS -e 20 -c 0 -i 21 -a 0 -x {3.1 2.1 -1 ------- null}
- -t 0.0304097884873346 -s 3 -d 2 -p rtProtoLS -e 20 -c 0 -i 21 -a 0 -x {3.1 2.1 -1 ------- null}
h -t 0.0304097884873346 -s 3 -d 2 -p rtProtoLS -e 20 -c 0 -i 21 -a 0 -x {3.1 2.1 -1 ------- null}
+ -t 0.0304097884873346 -s 3 -d 4 -p rtProtoLS -e 100 -c 0 -i 22 -a 0 -x {3.1 4.2 -1 ------- null}
- -t 0.0304097884873346 -s 3 -d 4 -p rtProtoLS -e 100 -c 0 -i 22 -a 0 -x {3.1 4.2 -1 ------- null}
h -t 0.0304097884873346 -s 3 -d 4 -p rtProtoLS -e 100 -c 0 -i 22 -a 0 -x {3.1 4.2 -1 ------- null}
r -t 0.0305217884873346 -s 6 -d 7 -p rtProtoLS -e 20 -c 0 -i 15 -a 0 -x {6.1 7.1 -1 ------- null}
r -t 0.0306497884873346 -s 6 -d 5 -p rtProtoLS -e 100 -c 0 -i 16 -a 0 -x {6.1 5.1 -1 ------- null}
+ -t 0.0306497884873346 -s 5 -d 6 -p rtProtoLS -e 20 -c 0 -i 23 -a 0 -x {5.1 6.1 -1 ------- null}
- -t 0.0306497884873346 -s 5 -d 6 -p rtProtoLS -e 20 -c 0 -i 23 -a 0 -x {5.1 6.1 -1 ------- null}
h -t 0.0306497884873346 -s 5 -d 6 -p rtProtoLS -e 20 -c 0 -i 23 -a 0 -x {5.1 6.1 -1 ------- null}
+ -t 0.0306497884873346 -s 5 -d 4 -p rtProtoLS -e 100 -c 0 -i 24 -a 0 -x {5.1 4.2 -1 ------- null}
- -t 0.0306497884873346 -s 5 -d 4 -p rtProtoLS -e 100 -c 0 -i 24 -a 0 -x {5.1 4.2 -1 ------- null}
h -t 0.0306497884873346 -s 5 -d 4 -p rtProtoLS -e 100 -c 0 -i 24 -a 0 -x {5.1 4.2 -1 ------- null}
r -t 0.0372783302185826 -s 0 -d 1 -p rtProtoLS -e 20 -c 0 -i 17 -a 0 -x {0.2 1.1 -1 ------- null}
r -t 0.0372783302185826 -s 4 -d 3 -p rtProtoLS -e 20 -c 0 -i 19 -a 0 -x {4.2 3.1 -1 ------- null}
r -t 0.0374223302185826 -s 0 -d 7 -p rtProtoLS -e 100 -c 0 -i 18 -a 0 -x {0.2 7.1 -1 ------- null}
+ -t 0.0374223302185826 -s 7 -d 0 -p rtProtoLS -e 20 -c 0 -i 25 -a 0 -x {7.1 0.2 -1 ------- null}
- -t 0.0374223302185826 -s 7 -d 0 -p rtProtoLS -e 20 -c 0 -i 25 -a 0 -x {7.1 0.2 -1 ------- null}
h -t 0.0374223302185826 -s 7 -d 0 -p rtProtoLS -e 20 -c 0 -i 25 -a 0 -x {7.1 0.2 -1 ------- null}
+ -t 0.0374223302185826 -s 7 -d 6 -p rtProtoLS -e 100 -c 0 -i 26 -a 0 -x {7.1 6.1 -1 ------- null}
- -t 0.0374223302185826 -s 7 -d 6 -p rtProtoLS -e 100 -c 0 -i 26 -a 0 -x {7.1 6.1 -1 ------- null}
h -t 0.0374223302185826 -s 7 -d 6 -p rtProtoLS -e 100 -c 0 -i 26 -a 0 -x {7.1 6.1 -1 ------- null}
r -t 0.0374223302185826 -s 4 -d 5 -p rtProtoLS -e 100 -c 0 -i 20 -a 0 -x {4.2 5.1 -1 ------- null}
+ -t 0.0374223302185826 -s 5 -d 4 -p rtProtoLS -e 20 -c 0 -i 27 -a 0 -x {5.1 4.2 -1 ------- null}
- -t 0.0374223302185826 -s 5 -d 4 -p rtProtoLS -e 20 -c 0 -i 27 -a 0 -x {5.1 4.2 -1 ------- null}
h -t 0.0374223302185826 -s 5 -d 4 -p rtProtoLS -e 20 -c 0 -i 27 -a 0 -x {5.1 4.2 -1 ------- null}
+ -t 0.0374223302185826 -s 5 -d 6 -p rtProtoLS -e 100 -c 0 -i 28 -a 0 -x {5.1 6.1 -1 ------- null}
- -t 0.0374223302185826 -s 5 -d 6 -p rtProtoLS -e 100 -c 0 -i 28 -a 0 -x {5.1 6.1 -1 ------- null}
h -t 0.0374223302185826 -s 5 -d 6 -p rtProtoLS -e 100 -c 0 -i 28 -a 0 -x {5.1 6.1 -1 ------- null}
r -t 0.0404257884873346 -s 3 -d 2 -p rtProtoLS -e 20 -c 0 -i 21 -a 0 -x {3.1 2.1 -1 ------- null}
r -t 0.0404897884873346 -s 3 -d 4 -p rtProtoLS -e 100 -c 0 -i 22 -a 0 -x {3.1 4.2 -1 ------- null}
+ -t 0.0404897884873346 -s 4 -d 3 -p rtProtoLS -e 20 -c 0 -i 29 -a 0 -x {4.2 3.1 -1 ------- null}
- -t 0.0404897884873346 -s 4 -d 3 -p rtProtoLS -e 20 -c 0 -i 29 -a 0 -x {4.2 3.1 -1 ------- null}
h -t 0.0404897884873346 -s 4 -d 3 -p rtProtoLS -e 20 -c 0 -i 29 -a 0 -x {4.2 3.1 -1 ------- null}
+ -t 0.0404897884873346 -s 4 -d 5 -p rtProtoLS -e 100 -c 0 -i 30 -a 0 -x {4.2 5.1 -1 ------- null}
- -t 0.0404897884873346 -s 4 -d 5 -p rtProtoLS -e 100 -c 0 -i 30 -a 0 -x {4.2 5.1 -1 ------- null}
h -t 0.0404897884873346 -s 4 -d 5 -p rtProtoLS -e 100 -c 0 -i 30 -a 0 -x {4.2 5.1 -1 ------- null}
r -t 0.0406817884873346 -s 5 -d 6 -p rtProtoLS -e 20 -c 0 -i 23 -a 0 -x {5.1 6.1 -1 ------- null}
r -t 0.0408097884873346 -s 5 -d 4 -p rtProtoLS -e 100 -c 0 -i 24 -a 0 -x {5.1 4.2 -1 ------- null}
+ -t 0.0408097884873346 -s 4 -d 5 -p rtProtoLS -e 20 -c 0 -i 31 -a 0 -x {4.2 5.1 -1 ------- null}
- -t 0.0408097884873346 -s 4 -d 5 -p rtProtoLS -e 20 -c 0 -i 31 -a 0 -x {4.2 5.1 -1 ------- null}
h -t 0.0408097884873346 -s 4 -d 5 -p rtProtoLS -e 20 -c 0 -i 31 -a 0 -x {4.2 5.1 -1 ------- null}
+ -t 0.04406133552271 -s 3 -d 2 -p rtProtoLS -e 100 -c 0 -i 32 -a 0 -x {3.1 2.1 -1 ------- null}
- -t 0.04406133552271 -s 3 -d 2 -p rtProtoLS -e 100 -c 0 -i 32 -a 0 -x {3.1 2.1 -1 ------- null}
h -t 0.04406133552271 -s 3 -d 2 -p rtProtoLS -e 100 -c 0 -i 32 -a 0 -x {3.1 2.1 -1 ------- null}
+ -t 0.04406133552271 -s 3 -d 4 -p rtProtoLS -e 100 -c 0 -i 33 -a 0 -x {3.1 4.2 -1 ------- null}
- -t 0.04406133552271 -s 3 -d 4 -p rtProtoLS -e 100 -c 0 -i 33 -a 0 -x {3.1 4.2 -1 ------- null}
h -t 0.04406133552271 -s 3 -d 4 -p rtProtoLS -e 100 -c 0 -i 33 -a 0 -x {3.1 4.2 -1 ------- null}
r -t 0.0474543302185826 -s 7 -d 0 -p rtProtoLS -e 20 -c 0 -i 25 -a 0 -x {7.1 0.2 -1 ------- null}
r -t 0.0474543302185826 -s 5 -d 4 -p rtProtoLS -e 20 -c 0 -i 27 -a 0 -x {5.1 4.2 -1 ------- null}
r -t 0.0475823302185826 -s 7 -d 6 -p rtProtoLS -e 100 -c 0 -i 26 -a 0 -x {7.1 6.1 -1 ------- null}
+ -t 0.0475823302185826 -s 6 -d 7 -p rtProtoLS -e 20 -c 0 -i 34 -a 0 -x {6.1 7.1 -1 ------- null}
- -t 0.0475823302185826 -s 6 -d 7 -p rtProtoLS -e 20 -c 0 -i 34 -a 0 -x {6.1 7.1 -1 ------- null}
h -t 0.0475823302185826 -s 6 -d 7 -p rtProtoLS -e 20 -c 0 -i 34 -a 0 -x {6.1 7.1 -1 ------- null}
+ -t 0.0475823302185826 -s 6 -d 5 -p rtProtoLS -e 100 -c 0 -i 35 -a 0 -x {6.1 5.1 -1 ------- null}
- -t 0.0475823302185826 -s 6 -d 5 -p rtProtoLS -e 100 -c 0 -i 35 -a 0 -x {6.1 5.1 -1 ------- null}
h -t 0.0475823302185826 -s 6 -d 5 -p rtProtoLS -e 100 -c 0 -i 35 -a 0 -x {6.1 5.1 -1 ------- null}
r -t 0.0475823302185826 -s 5 -d 6 -p rtProtoLS -e 100 -c 0 -i 28 -a 0 -x {5.1 6.1 -1 ------- null}
+ -t 0.0475823302185826 -s 6 -d 5 -p rtProtoLS -e 20 -c 0 -i 36 -a 0 -x {6.1 5.1 -1 ------- null}
- -t 0.0477423302185826 -s 6 -d 5 -p rtProtoLS -e 20 -c 0 -i 36 -a 0 -x {6.1 5.1 -1 ------- null}
h -t 0.0477423302185826 -s 6 -d 5 -p rtProtoLS -e 20 -c 0 -i 36 -a 0 -x {6.1 5.1 -1 ------- null}
r -t 0.0505057884873346 -s 4 -d 3 -p rtProtoLS -e 20 -c 0 -i 29 -a 0 -x {4.2 3.1 -1 ------- null}
r -t 0.0506497884873346 -s 4 -d 5 -p rtProtoLS -e 100 -c 0 -i 30 -a 0 -x {4.2 5.1 -1 ------- null}
+ -t 0.0506497884873346 -s 5 -d 4 -p rtProtoLS -e 20 -c 0 -i 37 -a 0 -x {5.1 4.2 -1 ------- null}
- -t 0.0506497884873346 -s 5 -d 4 -p rtProtoLS -e 20 -c 0 -i 37 -a 0 -x {5.1 4.2 -1 ------- null}
h -t 0.0506497884873346 -s 5 -d 4 -p rtProtoLS -e 20 -c 0 -i 37 -a 0 -x {5.1 4.2 -1 ------- null}
r -t 0.0508417884873346 -s 4 -d 5 -p rtProtoLS -e 20 -c 0 -i 31 -a 0 -x {4.2 5.1 -1 ------- null}
r -t 0.05414133552271 -s 3 -d 2 -p rtProtoLS -e 100 -c 0 -i 32 -a 0 -x {3.1 2.1 -1 ------- null}
+ -t 0.05414133552271 -s 2 -d 3 -p rtProtoLS -e 20 -c 0 -i 39 -a 0 -x {2.1 3.1 -1 ------- null}
- -t 0.05414133552271 -s 2 -d 3 -p rtProtoLS -e 20 -c 0 -i 39 -a 0 -x {2.1 3.1 -1 ------- null}
h -t 0.05414133552271 -s 2 -d 3 -p rtProtoLS -e 20 -c 0 -i 39 -a 0 -x {2.1 3.1 -1 ------- null}
+ -t 0.05414133552271 -s 2 -d 1 -p rtProtoLS -e 100 -c 0 -i 40 -a 0 -x {2.1 1.1 -1 ------- null}
- -t 0.05414133552271 -s 2 -d 1 -p rtProtoLS -e 100 -c 0 -i 40 -a 0 -x {2.1 1.1 -1 ------- null}
h -t 0.05414133552271 -s 2 -d 1 -p rtProtoLS -e 100 -c 0 -i 40 -a 0 -x {2.1 1.1 -1 ------- null}
r -t 0.05414133552271 -s 3 -d 4 -p rtProtoLS -e 100 -c 0 -i 33 -a 0 -x {3.1 4.2 -1 ------- null}
+ -t 0.05414133552271 -s 4 -d 3 -p rtProtoLS -e 20 -c 0 -i 41 -a 0 -x {4.2 3.1 -1 ------- null}
- -t 0.05414133552271 -s 4 -d 3 -p rtProtoLS -e 20 -c 0 -i 41 -a 0 -x {4.2 3.1 -1 ------- null}
h -t 0.05414133552271 -s 4 -d 3 -p rtProtoLS -e 20 -c 0 -i 41 -a 0 -x {4.2 3.1 -1 ------- null}
+ -t 0.05414133552271 -s 4 -d 5 -p rtProtoLS -e 100 -c 0 -i 42 -a 0 -x {4.2 5.1 -1 ------- null}
- -t 0.05414133552271 -s 4 -d 5 -p rtProtoLS -e 100 -c 0 -i 42 -a 0 -x {4.2 5.1 -1 ------- null}
h -t 0.05414133552271 -s 4 -d 5 -p rtProtoLS -e 100 -c 0 -i 42 -a 0 -x {4.2 5.1 -1 ------- null}
r -t 0.0576143302185826 -s 6 -d 7 -p rtProtoLS -e 20 -c 0 -i 34 -a 0 -x {6.1 7.1 -1 ------- null}
r -t 0.0577423302185826 -s 6 -d 5 -p rtProtoLS -e 100 -c 0 -i 35 -a 0 -x {6.1 5.1 -1 ------- null}
+ -t 0.0577423302185826 -s 5 -d 6 -p rtProtoLS -e 20 -c 0 -i 43 -a 0 -x {5.1 6.1 -1 ------- null}
- -t 0.0577423302185826 -s 5 -d 6 -p rtProtoLS -e 20 -c 0 -i 43 -a 0 -x {5.1 6.1 -1 ------- null}
h -t 0.0577423302185826 -s 5 -d 6 -p rtProtoLS -e 20 -c 0 -i 43 -a 0 -x {5.1 6.1 -1 ------- null}
r -t 0.0577743302185826 -s 6 -d 5 -p rtProtoLS -e 20 -c 0 -i 36 -a 0 -x {6.1 5.1 -1 ------- null}
r -t 0.0606817884873346 -s 5 -d 4 -p rtProtoLS -e 20 -c 0 -i 37 -a 0 -x {5.1 4.2 -1 ------- null}
r -t 0.06415733552271 -s 2 -d 3 -p rtProtoLS -e 20 -c 0 -i 39 -a 0 -x {2.1 3.1 -1 ------- null}
r -t 0.06415733552271 -s 4 -d 3 -p rtProtoLS -e 20 -c 0 -i 41 -a 0 -x {4.2 3.1 -1 ------- null}
r -t 0.06422133552271 -s 2 -d 1 -p rtProtoLS -e 100 -c 0 -i 40 -a 0 -x {2.1 1.1 -1 ------- null}
+ -t 0.06422133552271 -s 1 -d 2 -p rtProtoLS -e 20 -c 0 -i 44 -a 0 -x {1.1 2.1 -1 ------- null}
- -t 0.06422133552271 -s 1 -d 2 -p rtProtoLS -e 20 -c 0 -i 44 -a 0 -x {1.1 2.1 -1 ------- null}
h -t 0.06422133552271 -s 1 -d 2 -p rtProtoLS -e 20 -c 0 -i 44 -a 0 -x {1.1 2.1 -1 ------- null}
+ -t 0.06422133552271 -s 1 -d 0 -p rtProtoLS -e 100 -c 0 -i 45 -a 0 -x {1.1 0.2 -1 ------- null}
- -t 0.06422133552271 -s 1 -d 0 -p rtProtoLS -e 100 -c 0 -i 45 -a 0 -x {1.1 0.2 -1 ------- null}
h -t 0.06422133552271 -s 1 -d 0 -p rtProtoLS -e 100 -c 0 -i 45 -a 0 -x {1.1 0.2 -1 ------- null}
r -t 0.06430133552271 -s 4 -d 5 -p rtProtoLS -e 100 -c 0 -i 42 -a 0 -x {4.2 5.1 -1 ------- null}
+ -t 0.06430133552271 -s 5 -d 4 -p rtProtoLS -e 20 -c 0 -i 46 -a 0 -x {5.1 4.2 -1 ------- null}
- -t 0.06430133552271 -s 5 -d 4 -p rtProtoLS -e 20 -c 0 -i 46 -a 0 -x {5.1 4.2 -1 ------- null}
h -t 0.06430133552271 -s 5 -d 4 -p rtProtoLS -e 20 -c 0 -i 46 -a 0 -x {5.1 4.2 -1 ------- null}
+ -t 0.06430133552271 -s 5 -d 6 -p rtProtoLS -e 100 -c 0 -i 47 -a 0 -x {5.1 6.1 -1 ------- null}
- -t 0.06430133552271 -s 5 -d 6 -p rtProtoLS -e 100 -c 0 -i 47 -a 0 -x {5.1 6.1 -1 ------- null}
h -t 0.06430133552271 -s 5 -d 6 -p rtProtoLS -e 100 -c 0 -i 47 -a 0 -x {5.1 6.1 -1 ------- null}
r -t 0.0677743302185826 -s 5 -d 6 -p rtProtoLS -e 20 -c 0 -i 43 -a 0 -x {5.1 6.1 -1 ------- null}
r -t 0.07423733552271 -s 1 -d 2 -p rtProtoLS -e 20 -c 0 -i 44 -a 0 -x {1.1 2.1 -1 ------- null}
r -t 0.07430133552271 -s 1 -d 0 -p rtProtoLS -e 100 -c 0 -i 45 -a 0 -x {1.1 0.2 -1 ------- null}
+ -t 0.07430133552271 -s 0 -d 1 -p rtProtoLS -e 20 -c 0 -i 48 -a 0 -x {0.2 1.1 -1 ------- null}
- -t 0.07430133552271 -s 0 -d 1 -p rtProtoLS -e 20 -c 0 -i 48 -a 0 -x {0.2 1.1 -1 ------- null}
h -t 0.07430133552271 -s 0 -d 1 -p rtProtoLS -e 20 -c 0 -i 48 -a 0 -x {0.2 1.1 -1 ------- null}
+ -t 0.07430133552271 -s 0 -d 7 -p rtProtoLS -e 100 -c 0 -i 49 -a 0 -x {0.2 7.1 -1 ------- null}
- -t 0.07430133552271 -s 0 -d 7 -p rtProtoLS -e 100 -c 0 -i 49 -a 0 -x {0.2 7.1 -1 ------- null}
h -t 0.07430133552271 -s 0 -d 7 -p rtProtoLS -e 100 -c 0 -i 49 -a 0 -x {0.2 7.1 -1 ------- null}
r -t 0.07433333552271 -s 5 -d 4 -p rtProtoLS -e 20 -c 0 -i 46 -a 0 -x {5.1 4.2 -1 ------- null}
r -t 0.07446133552271 -s 5 -d 6 -p rtProtoLS -e 100 -c 0 -i 47 -a 0 -x {5.1 6.1 -1 ------- null}
+ -t 0.07446133552271 -s 6 -d 5 -p rtProtoLS -e 20 -c 0 -i 50 -a 0 -x {6.1 5.1 -1 ------- null}
- -t 0.07446133552271 -s 6 -d 5 -p rtProtoLS -e 20 -c 0 -i 50 -a 0 -x {6.1 5.1 -1 ------- null}
h -t 0.07446133552271 -s 6 -d 5 -p rtProtoLS -e 20 -c 0 -i 50 -a 0 -x {6.1 5.1 -1 ------- null}
+ -t 0.07446133552271 -s 6 -d 7 -p rtProtoLS -e 100 -c 0 -i 51 -a 0 -x {6.1 7.1 -1 ------- null}
- -t 0.07446133552271 -s 6 -d 7 -p rtProtoLS -e 100 -c 0 -i 51 -a 0 -x {6.1 7.1 -1 ------- null}
h -t 0.07446133552271 -s 6 -d 7 -p rtProtoLS -e 100 -c 0 -i 51 -a 0 -x {6.1 7.1 -1 ------- null}
r -t 0.08431733552271 -s 0 -d 1 -p rtProtoLS -e 20 -c 0 -i 48 -a 0 -x {0.2 1.1 -1 ------- null}
r -t 0.08446133552271 -s 0 -d 7 -p rtProtoLS -e 100 -c 0 -i 49 -a 0 -x {0.2 7.1 -1 ------- null}
+ -t 0.08446133552271 -s 7 -d 0 -p rtProtoLS -e 20 -c 0 -i 52 -a 0 -x {7.1 0.2 -1 ------- null}
- -t 0.08446133552271 -s 7 -d 0 -p rtProtoLS -e 20 -c 0 -i 52 -a 0 -x {7.1 0.2 -1 ------- null}
h -t 0.08446133552271 -s 7 -d 0 -p rtProtoLS -e 20 -c 0 -i 52 -a 0 -x {7.1 0.2 -1 ------- null}
+ -t 0.08446133552271 -s 7 -d 6 -p rtProtoLS -e 100 -c 0 -i 53 -a 0 -x {7.1 6.1 -1 ------- null}
- -t 0.08446133552271 -s 7 -d 6 -p rtProtoLS -e 100 -c 0 -i 53 -a 0 -x {7.1 6.1 -1 ------- null}
h -t 0.08446133552271 -s 7 -d 6 -p rtProtoLS -e 100 -c 0 -i 53 -a 0 -x {7.1 6.1 -1 ------- null}
r -t 0.08449333552271 -s 6 -d 5 -p rtProtoLS -e 20 -c 0 -i 50 -a 0 -x {6.1 5.1 -1 ------- null}
r -t 0.08462133552271 -s 6 -d 7 -p rtProtoLS -e 100 -c 0 -i 51 -a 0 -x {6.1 7.1 -1 ------- null}
+ -t 0.08462133552271 -s 7 -d 6 -p rtProtoLS -e 20 -c 0 -i 54 -a 0 -x {7.1 6.1 -1 ------- null}
- -t 0.08462133552271 -s 7 -d 6 -p rtProtoLS -e 20 -c 0 -i 54 -a 0 -x {7.1 6.1 -1 ------- null}
h -t 0.08462133552271 -s 7 -d 6 -p rtProtoLS -e 20 -c 0 -i 54 -a 0 -x {7.1 6.1 -1 ------- null}
r -t 0.09449333552271 -s 7 -d 0 -p rtProtoLS -e 20 -c 0 -i 52 -a 0 -x {7.1 0.2 -1 ------- null}
r -t 0.09462133552271 -s 7 -d 6 -p rtProtoLS -e 100 -c 0 -i 53 -a 0 -x {7.1 6.1 -1 ------- null}
+ -t 0.09462133552271 -s 6 -d 7 -p rtProtoLS -e 20 -c 0 -i 55 -a 0 -x {6.1 7.1 -1 ------- null}
- -t 0.09462133552271 -s 6 -d 7 -p rtProtoLS -e 20 -c 0 -i 55 -a 0 -x {6.1 7.1 -1 ------- null}
h -t 0.09462133552271 -s 6 -d 7 -p rtProtoLS -e 20 -c 0 -i 55 -a 0 -x {6.1 7.1 -1 ------- null}
r -t 0.09465333552271 -s 7 -d 6 -p rtProtoLS -e 20 -c 0 -i 54 -a 0 -x {7.1 6.1 -1 ------- null}
r -t 0.10465333552271 -s 6 -d 7 -p rtProtoLS -e 20 -c 0 -i 55 -a 0 -x {6.1 7.1 -1 ------- null}
+ -t 0.156480885882155 -s 6 -d 5 -p rtProtoLS -e 100 -c 0 -i 57 -a 0 -x {6.1 5.1 -1 ------- null}
- -t 0.156480885882155 -s 6 -d 5 -p rtProtoLS -e 100 -c 0 -i 57 -a 0 -x {6.1 5.1 -1 ------- null}
h -t 0.156480885882155 -s 6 -d 5 -p rtProtoLS -e 100 -c 0 -i 57 -a 0 -x {6.1 5.1 -1 ------- null}
+ -t 0.156480885882155 -s 6 -d 7 -p rtProtoLS -e 100 -c 0 -i 58 -a 0 -x {6.1 7.1 -1 ------- null}
- -t 0.156480885882155 -s 6 -d 7 -p rtProtoLS -e 100 -c 0 -i 58 -a 0 -x {6.1 7.1 -1 ------- null}
h -t 0.156480885882155 -s 6 -d 7 -p rtProtoLS -e 100 -c 0 -i 58 -a 0 -x {6.1 7.1 -1 ------- null}
r -t 0.166640885882155 -s 6 -d 5 -p rtProtoLS -e 100 -c 0 -i 57 -a 0 -x {6.1 5.1 -1 ------- null}
+ -t 0.166640885882155 -s 5 -d 6 -p rtProtoLS -e 20 -c 0 -i 60 -a 0 -x {5.1 6.1 -1 ------- null}
- -t 0.166640885882155 -s 5 -d 6 -p rtProtoLS -e 20 -c 0 -i 60 -a 0 -x {5.1 6.1 -1 ------- null}
h -t 0.166640885882155 -s 5 -d 6 -p rtProtoLS -e 20 -c 0 -i 60 -a 0 -x {5.1 6.1 -1 ------- null}
+ -t 0.166640885882155 -s 5 -d 4 -p rtProtoLS -e 100 -c 0 -i 61 -a 0 -x {5.1 4.2 -1 ------- null}
- -t 0.166640885882155 -s 5 -d 4 -p rtProtoLS -e 100 -c 0 -i 61 -a 0 -x {5.1 4.2 -1 ------- null}
h -t 0.166640885882155 -s 5 -d 4 -p rtProtoLS -e 100 -c 0 -i 61 -a 0 -x {5.1 4.2 -1 ------- null}
r -t 0.166640885882155 -s 6 -d 7 -p rtProtoLS -e 100 -c 0 -i 58 -a 0 -x {6.1 7.1 -1 ------- null}
+ -t 0.166640885882155 -s 7 -d 6 -p rtProtoLS -e 20 -c 0 -i 62 -a 0 -x {7.1 6.1 -1 ------- null}
- -t 0.166640885882155 -s 7 -d 6 -p rtProtoLS -e 20 -c 0 -i 62 -a 0 -x {7.1 6.1 -1 ------- null}
h -t 0.166640885882155 -s 7 -d 6 -p rtProtoLS -e 20 -c 0 -i 62 -a 0 -x {7.1 6.1 -1 ------- null}
+ -t 0.166640885882155 -s 7 -d 0 -p rtProtoLS -e 100 -c 0 -i 63 -a 0 -x {7.1 0.2 -1 ------- null}
- -t 0.166640885882155 -s 7 -d 0 -p rtProtoLS -e 100 -c 0 -i 63 -a 0 -x {7.1 0.2 -1 ------- null}
h -t 0.166640885882155 -s 7 -d 0 -p rtProtoLS -e 100 -c 0 -i 63 -a 0 -x {7.1 0.2 -1 ------- null}
r -t 0.176672885882155 -s 5 -d 6 -p rtProtoLS -e 20 -c 0 -i 60 -a 0 -x {5.1 6.1 -1 ------- null}
r -t 0.176672885882155 -s 7 -d 6 -p rtProtoLS -e 20 -c 0 -i 62 -a 0 -x {7.1 6.1 -1 ------- null}
r -t 0.176800885882155 -s 5 -d 4 -p rtProtoLS -e 100 -c 0 -i 61 -a 0 -x {5.1 4.2 -1 ------- null}
+ -t 0.176800885882155 -s 4 -d 5 -p rtProtoLS -e 20 -c 0 -i 64 -a 0 -x {4.2 5.1 -1 ------- null}
- -t 0.176800885882155 -s 4 -d 5 -p rtProtoLS -e 20 -c 0 -i 64 -a 0 -x {4.2 5.1 -1 ------- null}
h -t 0.176800885882155 -s 4 -d 5 -p rtProtoLS -e 20 -c 0 -i 64 -a 0 -x {4.2 5.1 -1 ------- null}
+ -t 0.176800885882155 -s 4 -d 3 -p rtProtoLS -e 100 -c 0 -i 65 -a 0 -x {4.2 3.1 -1 ------- null}
- -t 0.176800885882155 -s 4 -d 3 -p rtProtoLS -e 100 -c 0 -i 65 -a 0 -x {4.2 3.1 -1 ------- null}
h -t 0.176800885882155 -s 4 -d 3 -p rtProtoLS -e 100 -c 0 -i 65 -a 0 -x {4.2 3.1 -1 ------- null}
r -t 0.176800885882155 -s 7 -d 0 -p rtProtoLS -e 100 -c 0 -i 63 -a 0 -x {7.1 0.2 -1 ------- null}
+ -t 0.176800885882155 -s 0 -d 7 -p rtProtoLS -e 20 -c 0 -i 66 -a 0 -x {0.2 7.1 -1 ------- null}
- -t 0.176800885882155 -s 0 -d 7 -p rtProtoLS -e 20 -c 0 -i 66 -a 0 -x {0.2 7.1 -1 ------- null}
h -t 0.176800885882155 -s 0 -d 7 -p rtProtoLS -e 20 -c 0 -i 66 -a 0 -x {0.2 7.1 -1 ------- null}
+ -t 0.176800885882155 -s 0 -d 1 -p rtProtoLS -e 100 -c 0 -i 67 -a 0 -x {0.2 1.1 -1 ------- null}
- -t 0.176800885882155 -s 0 -d 1 -p rtProtoLS -e 100 -c 0 -i 67 -a 0 -x {0.2 1.1 -1 ------- null}
h -t 0.176800885882155 -s 0 -d 1 -p rtProtoLS -e 100 -c 0 -i 67 -a 0 -x {0.2 1.1 -1 ------- null}
r -t 0.186832885882155 -s 4 -d 5 -p rtProtoLS -e 20 -c 0 -i 64 -a 0 -x {4.2 5.1 -1 ------- null}
r -t 0.186832885882155 -s 0 -d 7 -p rtProtoLS -e 20 -c 0 -i 66 -a 0 -x {0.2 7.1 -1 ------- null}
r -t 0.186880885882155 -s 4 -d 3 -p rtProtoLS -e 100 -c 0 -i 65 -a 0 -x {4.2 3.1 -1 ------- null}
+ -t 0.186880885882155 -s 3 -d 4 -p rtProtoLS -e 20 -c 0 -i 68 -a 0 -x {3.1 4.2 -1 ------- null}
- -t 0.186880885882155 -s 3 -d 4 -p rtProtoLS -e 20 -c 0 -i 68 -a 0 -x {3.1 4.2 -1 ------- null}
h -t 0.186880885882155 -s 3 -d 4 -p rtProtoLS -e 20 -c 0 -i 68 -a 0 -x {3.1 4.2 -1 ------- null}
+ -t 0.186880885882155 -s 3 -d 2 -p rtProtoLS -e 100 -c 0 -i 69 -a 0 -x {3.1 2.1 -1 ------- null}
- -t 0.186880885882155 -s 3 -d 2 -p rtProtoLS -e 100 -c 0 -i 69 -a 0 -x {3.1 2.1 -1 ------- null}
h -t 0.186880885882155 -s 3 -d 2 -p rtProtoLS -e 100 -c 0 -i 69 -a 0 -x {3.1 2.1 -1 ------- null}
r -t 0.186880885882155 -s 0 -d 1 -p rtProtoLS -e 100 -c 0 -i 67 -a 0 -x {0.2 1.1 -1 ------- null}
+ -t 0.186880885882155 -s 1 -d 0 -p rtProtoLS -e 20 -c 0 -i 70 -a 0 -x {1.1 0.2 -1 ------- null}
- -t 0.186880885882155 -s 1 -d 0 -p rtProtoLS -e 20 -c 0 -i 70 -a 0 -x {1.1 0.2 -1 ------- null}
h -t 0.186880885882155 -s 1 -d 0 -p rtProtoLS -e 20 -c 0 -i 70 -a 0 -x {1.1 0.2 -1 ------- null}
+ -t 0.186880885882155 -s 1 -d 2 -p rtProtoLS -e 100 -c 0 -i 71 -a 0 -x {1.1 2.1 -1 ------- null}
- -t 0.186880885882155 -s 1 -d 2 -p rtProtoLS -e 100 -c 0 -i 71 -a 0 -x {1.1 2.1 -1 ------- null}
h -t 0.186880885882155 -s 1 -d 2 -p rtProtoLS -e 100 -c 0 -i 71 -a 0 -x {1.1 2.1 -1 ------- null}
r -t 0.196896885882155 -s 3 -d 4 -p rtProtoLS -e 20 -c 0 -i 68 -a 0 -x {3.1 4.2 -1 ------- null}
r -t 0.196896885882155 -s 1 -d 0 -p rtProtoLS -e 20 -c 0 -i 70 -a 0 -x {1.1 0.2 -1 ------- null}
r -t 0.196960885882155 -s 3 -d 2 -p rtProtoLS -e 100 -c 0 -i 69 -a 0 -x {3.1 2.1 -1 ------- null}
+ -t 0.196960885882155 -s 2 -d 3 -p rtProtoLS -e 20 -c 0 -i 72 -a 0 -x {2.1 3.1 -1 ------- null}
- -t 0.196960885882155 -s 2 -d 3 -p rtProtoLS -e 20 -c 0 -i 72 -a 0 -x {2.1 3.1 -1 ------- null}
h -t 0.196960885882155 -s 2 -d 3 -p rtProtoLS -e 20 -c 0 -i 72 -a 0 -x {2.1 3.1 -1 ------- null}
+ -t 0.196960885882155 -s 2 -d 1 -p rtProtoLS -e 100 -c 0 -i 73 -a 0 -x {2.1 1.1 -1 ------- null}
- -t 0.196960885882155 -s 2 -d 1 -p rtProtoLS -e 100 -c 0 -i 73 -a 0 -x {2.1 1.1 -1 ------- null}
h -t 0.196960885882155 -s 2 -d 1 -p rtProtoLS -e 100 -c 0 -i 73 -a 0 -x {2.1 1.1 -1 ------- null}
r -t 0.196960885882155 -s 1 -d 2 -p rtProtoLS -e 100 -c 0 -i 71 -a 0 -x {1.1 2.1 -1 ------- null}
+ -t 0.196960885882155 -s 2 -d 1 -p rtProtoLS -e 20 -c 0 -i 74 -a 0 -x {2.1 1.1 -1 ------- null}
- -t 0.197040885882155 -s 2 -d 1 -p rtProtoLS -e 20 -c 0 -i 74 -a 0 -x {2.1 1.1 -1 ------- null}
h -t 0.197040885882155 -s 2 -d 1 -p rtProtoLS -e 20 -c 0 -i 74 -a 0 -x {2.1 1.1 -1 ------- null}
r -t 0.206976885882155 -s 2 -d 3 -p rtProtoLS -e 20 -c 0 -i 72 -a 0 -x {2.1 3.1 -1 ------- null}
r -t 0.207040885882155 -s 2 -d 1 -p rtProtoLS -e 100 -c 0 -i 73 -a 0 -x {2.1 1.1 -1 ------- null}
+ -t 0.207040885882155 -s 1 -d 2 -p rtProtoLS -e 20 -c 0 -i 75 -a 0 -x {1.1 2.1 -1 ------- null}
- -t 0.207040885882155 -s 1 -d 2 -p rtProtoLS -e 20 -c 0 -i 75 -a 0 -x {1.1 2.1 -1 ------- null}
h -t 0.207040885882155 -s 1 -d 2 -p rtProtoLS -e 20 -c 0 -i 75 -a 0 -x {1.1 2.1 -1 ------- null}
r -t 0.207056885882155 -s 2 -d 1 -p rtProtoLS -e 20 -c 0 -i 74 -a 0 -x {2.1 1.1 -1 ------- null}
r -t 0.217056885882155 -s 1 -d 2 -p rtProtoLS -e 20 -c 0 -i 75 -a 0 -x {1.1 2.1 -1 ------- null}
+ -t 0.22058669092161 -s 4 -d 3 -p rtProtoLS -e 100 -c 0 -i 77 -a 0 -x {4.2 3.1 -1 ------- null}
- -t 0.22058669092161 -s 4 -d 3 -p rtProtoLS -e 100 -c 0 -i 77 -a 0 -x {4.2 3.1 -1 ------- null}
h -t 0.22058669092161 -s 4 -d 3 -p rtProtoLS -e 100 -c 0 -i 77 -a 0 -x {4.2 3.1 -1 ------- null}
+ -t 0.22058669092161 -s 4 -d 5 -p rtProtoLS -e 100 -c 0 -i 78 -a 0 -x {4.2 5.1 -1 ------- null}
- -t 0.22058669092161 -s 4 -d 5 -p rtProtoLS -e 100 -c 0 -i 78 -a 0 -x {4.2 5.1 -1 ------- null}
h -t 0.22058669092161 -s 4 -d 5 -p rtProtoLS -e 100 -c 0 -i 78 -a 0 -x {4.2 5.1 -1 ------- null}
r -t 0.23066669092161 -s 4 -d 3 -p rtProtoLS -e 100 -c 0 -i 77 -a 0 -x {4.2 3.1 -1 ------- null}
+ -t 0.23066669092161 -s 3 -d 4 -p rtProtoLS -e 20 -c 0 -i 79 -a 0 -x {3.1 4.2 -1 ------- null}