n -t 0 -s 0 -S DLABEL -l "node 1" -L ""
n -t 0 -s 1 -S DLABEL -l "node 2" -L ""
n -t 0 -s 2 -S DLABEL -l "node 3" -L ""
n -t 0 -s 3 -S DLABEL -l "node 4" -L ""
n -t 0 -s 4 -S DLABEL -l "node 5" -L ""
n -t 0 -s 5 -S DLABEL -l "node 6" -L ""
n -t 0 -s 0 -S DCOLOR -e "red" -E ""
n -t 0 -s 1 -S DCOLOR -e "red" -E ""
n -t 0 -s 2 -S DCOLOR -e "red" -E ""
n -t 0 -s 3 -S DCOLOR -e "blue" -E ""
n -t 0 -s 4 -S DCOLOR -e "blue" -E ""
n -t 0 -s 5 -S DCOLOR -e "blue" -E ""
V -t * -v 1.0a5 -a 0
A -t * -n 1 -p 0 -o 0x7fffffff -c 30 -a 1
A -t * -h 1 -m 1073741823 -s 0
c -t * -i 1 -n Red
c -t * -i 2 -n Green
n -t * -a 4 -s 4 -S UP -v circle -c black -i black
n -t * -a 0 -s 0 -S UP -v circle -c black -i black
n -t * -a 5 -s 5 -S UP -v circle -c black -i black
n -t * -a 1 -s 1 -S UP -v circle -c black -i black
n -t * -a 2 -s 2 -S UP -v circle -c black -i black
n -t * -a 3 -s 3 -S UP -v circle -c black -i black
l -t * -s 0 -d 2 -S UP -r 800000 -D 0.070000000000000007 -c black -o right-down
l -t * -s 1 -d 2 -S UP -r 800000 -D 0.070000000000000007 -c black -o right-up
l -t * -s 2 -d 3 -S UP -r 500000 -D 0.070000000000000007 -c black -o right
l -t * -s 3 -d 4 -S UP -r 800000 -D 0.070000000000000007 -c black -o right-up
l -t * -s 3 -d 5 -S UP -r 800000 -D 0.070000000000000007 -c black -o right-down
q -t * -s 3 -d 2 -a 0.5
q -t * -s 2 -d 3 -a 0.5
+ -t 0.1 -s 1 -d 2 -p cbr -e 1000 -c 2 -i 0 -a 2 -x {1.0 5.0 0 ------- null}
- -t 0.1 -s 1 -d 2 -p cbr -e 1000 -c 2 -i 0 -a 2 -x {1.0 5.0 0 ------- null}
h -t 0.1 -s 1 -d 2 -p cbr -e 1000 -c 2 -i 0 -a 2 -x {1.0 5.0 -1 ------- null}
+ -t 0.1 -s 0 -d 2 -p tcp -e 40 -c 1 -i 1 -a 1 -x {0.0 4.0 0 ------- null}
- -t 0.1 -s 0 -d 2 -p tcp -e 40 -c 1 -i 1 -a 1 -x {0.0 4.0 0 ------- null}
h -t 0.1 -s 0 -d 2 -p tcp -e 40 -c 1 -i 1 -a 1 -x {0.0 4.0 -1 ------- null}
+ -t 0.108 -s 1 -d 2 -p cbr -e 1000 -c 2 -i 2 -a 2 -x {1.0 5.0 1 ------- null}
- -t 0.11 -s 1 -d 2 -p cbr -e 1000 -c 2 -i 2 -a 2 -x {1.0 5.0 1 ------- null}
h -t 0.11 -s 1 -d 2 -p cbr -e 1000 -c 2 -i 2 -a 2 -x {1.0 5.0 -1 ------- null}
+ -t 0.116 -s 1 -d 2 -p cbr -e 1000 -c 2 -i 3 -a 2 -x {1.0 5.0 2 ------- null}
- -t 0.12 -s 1 -d 2 -p cbr -e 1000 -c 2 -i 3 -a 2 -x {1.0 5.0 2 ------- null}
h -t 0.12 -s 1 -d 2 -p cbr -e 1000 -c 2 -i 3 -a 2 -x {1.0 5.0 -1 ------- null}
+ -t 0.124 -s 1 -d 2 -p cbr -e 1000 -c 2 -i 4 -a 2 -x {1.0 5.0 3 ------- null}
- -t 0.13 -s 1 -d 2 -p cbr -e 1000 -c 2 -i 4 -a 2 -x {1.0 5.0 3 ------- null}
h -t 0.13 -s 1 -d 2 -p cbr -e 1000 -c 2 -i 4 -a 2 -x {1.0 5.0 -1 ------- null}
+ -t 0.132 -s 1 -d 2 -p cbr -e 1000 -c 2 -i 5 -a 2 -x {1.0 5.0 4 ------- null}
- -t 0.14 -s 1 -d 2 -p cbr -e 1000 -c 2 -i 5 -a 2 -x {1.0 5.0 4 ------- null}
h -t 0.14 -s 1 -d 2 -p cbr -e 1000 -c 2 -i 5 -a 2 -x {1.0 5.0 -1 ------- null}
+ -t 0.14 -s 1 -d 2 -p cbr -e 1000 -c 2 -i 6 -a 2 -x {1.0 5.0 5 ------- null}
+ -t 0.148 -s 1 -d 2 -p cbr -e 1000 -c 2 -i 7 -a 2 -x {1.0 5.0 6 ------- null}
- -t 0.15 -s 1 -d 2 -p cbr -e 1000 -c 2 -i 6 -a 2 -x {1.0 5.0 5 ------- null}
h -t 0.15 -s 1 -d 2 -p cbr -e 1000 -c 2 -i 6 -a 2 -x {1.0 5.0 -1 ------- null}
+ -t 0.156 -s 1 -d 2 -p cbr -e 1000 -c 2 -i 8 -a 2 -x {1.0 5.0 7 ------- null}
- -t 0.16 -s 1 -d 2 -p cbr -e 1000 -c 2 -i 7 -a 2 -x {1.0 5.0 6 ------- null}
h -t 0.16 -s 1 -d 2 -p cbr -e 1000 -c 2 -i 7 -a 2 -x {1.0 5.0 -1 ------- null}
+ -t 0.164 -s 1 -d 2 -p cbr -e 1000 -c 2 -i 9 -a 2 -x {1.0 5.0 8 ------- null}
- -t 0.17 -s 1 -d 2 -p cbr -e 1000 -c 2 -i 8 -a 2 -x {1.0 5.0 7 ------- null}
h -t 0.17 -s 1 -d 2 -p cbr -e 1000 -c 2 -i 8 -a 2 -x {1.0 5.0 -1 ------- null}
r -t 0.1704 -s 0 -d 2 -p tcp -e 40 -c 1 -i 1 -a 1 -x {0.0 4.0 0 ------- null}
+ -t 0.1704 -s 2 -d 3 -p tcp -e 40 -c 1 -i 1 -a 1 -x {0.0 4.0 0 ------- null}
- -t 0.1704 -s 2 -d 3 -p tcp -e 40 -c 1 -i 1 -a 1 -x {0.0 4.0 0 ------- null}
h -t 0.1704 -s 2 -d 3 -p tcp -e 40 -c 1 -i 1 -a 1 -x {0.0 4.0 -1 ------- null}
+ -t 0.172 -s 1 -d 2 -p cbr -e 1000 -c 2 -i 10 -a 2 -x {1.0 5.0 9 ------- null}
r -t 0.18 -s 1 -d 2 -p cbr -e 1000 -c 2 -i 0 -a 2 -x {1.0 5.0 0 ------- null}
+ -t 0.18 -s 2 -d 3 -p cbr -e 1000 -c 2 -i 0 -a 2 -x {1.0 5.0 0 ------- null}
- -t 0.18 -s 2 -d 3 -p cbr -e 1000 -c 2 -i 0 -a 2 -x {1.0 5.0 0 ------- null}
h -t 0.18 -s 2 -d 3 -p cbr -e 1000 -c 2 -i 0 -a 2 -x {1.0 5.0 -1 ------- null}
- -t 0.18 -s 1 -d 2 -p cbr -e 1000 -c 2 -i 9 -a 2 -x {1.0 5.0 8 ------- null}
h -t 0.18 -s 1 -d 2 -p cbr -e 1000 -c 2 -i 9 -a 2 -x {1.0 5.0 -1 ------- null}
+ -t 0.18 -s 1 -d 2 -p cbr -e 1000 -c 2 -i 11 -a 2 -x {1.0 5.0 10 ------- null}
+ -t 0.188 -s 1 -d 2 -p cbr -e 1000 -c 2 -i 12 -a 2 -x {1.0 5.0 11 ------- null}
r -t 0.19 -s 1 -d 2 -p cbr -e 1000 -c 2 -i 2 -a 2 -x {1.0 5.0 1 ------- null}
+ -t 0.19 -s 2 -d 3 -p cbr -e 1000 -c 2 -i 2 -a 2 -x {1.0 5.0 1 ------- null}
- -t 0.19 -s 1 -d 2 -p cbr -e 1000 -c 2 -i 10 -a 2 -x {1.0 5.0 9 ------- null}
h -t 0.19 -s 1 -d 2 -p cbr -e 1000 -c 2 -i 10 -a 2 -x {1.0 5.0 -1 ------- null}
- -t 0.196 -s 2 -d 3 -p cbr -e 1000 -c 2 -i 2 -a 2 -x {1.0 5.0 1 ------- null}
h -t 0.196 -s 2 -d 3 -p cbr -e 1000 -c 2 -i 2 -a 2 -x {1.0 5.0 -1 ------- null}
+ -t 0.196 -s 1 -d 2 -p cbr -e 1000 -c 2 -i 13 -a 2 -x {1.0 5.0 12 ------- null}
r -t 0.2 -s 1 -d 2 -p cbr -e 1000 -c 2 -i 3 -a 2 -x {1.0 5.0 2 ------- null}
+ -t 0.2 -s 2 -d 3 -p cbr -e 1000 -c 2 -i 3 -a 2 -x {1.0 5.0 2 ------- null}
- -t 0.2 -s 1 -d 2 -p cbr -e 1000 -c 2 -i 11 -a 2 -x {1.0 5.0 10 ------- null}
h -t 0.2 -s 1 -d 2 -p cbr -e 1000 -c 2 -i 11 -a 2 -x {1.0 5.0 -1 ------- null}
+ -t 0.204 -s 1 -d 2 -p cbr -e 1000 -c 2 -i 14 -a 2 -x {1.0 5.0 13 ------- null}
r -t 0.21 -s 1 -d 2 -p cbr -e 1000 -c 2 -i 4 -a 2 -x {1.0 5.0 3 ------- null}
+ -t 0.21 -s 2 -d 3 -p cbr -e 1000 -c 2 -i 4 -a 2 -x {1.0 5.0 3 ------- null}
- -t 0.21 -s 1 -d 2 -p cbr -e 1000 -c 2 -i 12 -a 2 -x {1.0 5.0 11 ------- null}
h -t 0.21 -s 1 -d 2 -p cbr -e 1000 -c 2 -i 12 -a 2 -x {1.0 5.0 -1 ------- null}
- -t 0.212 -s 2 -d 3 -p cbr -e 1000 -c 2 -i 3 -a 2 -x {1.0 5.0 2 ------- null}
h -t 0.212 -s 2 -d 3 -p cbr -e 1000 -c 2 -i 3 -a 2 -x {1.0 5.0 -1 ------- null}
+ -t 0.212 -s 1 -d 2 -p cbr -e 1000 -c 2 -i 15 -a 2 -x {1.0 5.0 14 ------- null}
r -t 0.22 -s 1 -d 2 -p cbr -e 1000 -c 2 -i 5 -a 2 -x {1.0 5.0 4 ------- null}
+ -t 0.22 -s 2 -d 3 -p cbr -e 1000 -c 2 -i 5 -a 2 -x {1.0 5.0 4 ------- null}
- -t 0.22 -s 1 -d 2 -p cbr -e 1000 -c 2 -i 13 -a 2 -x {1.0 5.0 12 ------- null}
h -t 0.22 -s 1 -d 2 -p cbr -e 1000 -c 2 -i 13 -a 2 -x {1.0 5.0 -1 ------- null}
+ -t 0.22 -s 1 -d 2 -p cbr -e 1000 -c 2 -i 16 -a 2 -x {1.0 5.0 15 ------- null}
- -t 0.228 -s 2 -d 3 -p cbr -e 1000 -c 2 -i 4 -a 2 -x {1.0 5.0 3 ------- null}
h -t 0.228 -s 2 -d 3 -p cbr -e 1000 -c 2 -i 4 -a 2 -x {1.0 5.0 -1 ------- null}
+ -t 0.228 -s 1 -d 2 -p cbr -e 1000 -c 2 -i 17 -a 2 -x {1.0 5.0 16 ------- null}
r -t 0.23 -s 1 -d 2 -p cbr -e 1000 -c 2 -i 6 -a 2 -x {1.0 5.0 5 ------- null}
+ -t 0.23 -s 2 -d 3 -p cbr -e 1000 -c 2 -i 6 -a 2 -x {1.0 5.0 5 ------- null}
- -t 0.23 -s 1 -d 2 -p cbr -e 1000 -c 2 -i 14 -a 2 -x {1.0 5.0 13 ------- null}
h -t 0.23 -s 1 -d 2 -p cbr -e 1000 -c 2 -i 14 -a 2 -x {1.0 5.0 -1 ------- null}
+ -t 0.236 -s 1 -d 2 -p cbr -e 1000 -c 2 -i 18 -a 2 -x {1.0 5.0 17 ------- null}
r -t 0.24 -s 1 -d 2 -p cbr -e 1000 -c 2 -i 7 -a 2 -x {1.0 5.0 6 ------- null}
+ -t 0.24 -s 2 -d 3 -p cbr -e 1000 -c 2 -i 7 -a 2 -x {1.0 5.0 6 ------- null}
- -t 0.24 -s 1 -d 2 -p cbr -e 1000 -c 2 -i 15 -a 2 -x {1.0 5.0 14 ------- null}
h -t 0.24 -s 1 -d 2 -p cbr -e 1000 -c 2 -i 15 -a 2 -x {1.0 5.0 -1 ------- null}
r -t 0.24104 -s 2 -d 3 -p tcp -e 40 -c 1 -i 1 -a 1 -x {0.0 4.0 0 ------- null}
+ -t 0.24104 -s 3 -d 4 -p tcp -e 40 -c 1 -i 1 -a 1 -x {0.0 4.0 0 ------- null}
- -t 0.24104 -s 3 -d 4 -p tcp -e 40 -c 1 -i 1 -a 1 -x {0.0 4.0 0 ------- null}
h -t 0.24104 -s 3 -d 4 -p tcp -e 40 -c 1 -i 1 -a 1 -x {0.0 4.0 -1 ------- null}
- -t 0.244 -s 2 -d 3 -p cbr -e 1000 -c 2 -i 5 -a 2 -x {1.0 5.0 4 ------- null}
h -t 0.244 -s 2 -d 3 -p cbr -e 1000 -c 2 -i 5 -a 2 -x {1.0 5.0 -1 ------- null}
+ -t 0.244 -s 1 -d 2 -p cbr -e 1000 -c 2 -i 19 -a 2 -x {1.0 5.0 18 ------- null}
r -t 0.25 -s 1 -d 2 -p cbr -e 1000 -c 2 -i 8 -a 2 -x {1.0 5.0 7 ------- null}
+ -t 0.25 -s 2 -d 3 -p cbr -e 1000 -c 2 -i 8 -a 2 -x {1.0 5.0 7 ------- null}
- -t 0.25 -s 1 -d 2 -p cbr -e 1000 -c 2 -i 16 -a 2 -x {1.0 5.0 15 ------- null}
h -t 0.25 -s 1 -d 2 -p cbr -e 1000 -c 2 -i 16 -a 2 -x {1.0 5.0 -1 ------- null}
+ -t 0.252 -s 1 -d 2 -p cbr -e 1000 -c 2 -i 20 -a 2 -x {1.0 5.0 19 ------- null}
r -t 0.26 -s 1 -d 2 -p cbr -e 1000 -c 2 -i 9 -a 2 -x {1.0 5.0 8 ------- null}
+ -t 0.26 -s 2 -d 3 -p cbr -e 1000 -c 2 -i 9 -a 2 -x {1.0 5.0 8 ------- null}
- -t 0.26 -s 2 -d 3 -p cbr -e 1000 -c 2 -i 6 -a 2 -x {1.0 5.0 5 ------- null}
h -t 0.26 -s 2 -d 3 -p cbr -e 1000 -c 2 -i 6 -a 2 -x {1.0 5.0 -1 ------- null}
- -t 0.26 -s 1 -d 2 -p cbr -e 1000 -c 2 -i 17 -a 2 -x {1.0 5.0 16 ------- null}
h -t 0.26 -s 1 -d 2 -p cbr -e 1000 -c 2 -i 17 -a 2 -x {1.0 5.0 -1 ------- null}
+ -t 0.26 -s 1 -d 2 -p cbr -e 1000 -c 2 -i 21 -a 2 -x {1.0 5.0 20 ------- null}
r -t 0.266 -s 2 -d 3 -p cbr -e 1000 -c 2 -i 0 -a 2 -x {1.0 5.0 0 ------- null}
+ -t 0.266 -s 3 -d 5 -p cbr -e 1000 -c 2 -i 0 -a 2 -x {1.0 5.0 0 ------- null}
- -t 0.266 -s 3 -d 5 -p cbr -e 1000 -c 2 -i 0 -a 2 -x {1.0 5.0 0 ------- null}
h -t 0.266 -s 3 -d 5 -p cbr -e 1000 -c 2 -i 0 -a 2 -x {1.0 5.0 -1 ------- null}
+ -t 0.268 -s 1 -d 2 -p cbr -e 1000 -c 2 -i 22 -a 2 -x {1.0 5.0 21 ------- null}
r -t 0.27 -s 1 -d 2 -p cbr -e 1000 -c 2 -i 10 -a 2 -x {1.0 5.0 9 ------- null}
+ -t 0.27 -s 2 -d 3 -p cbr -e 1000 -c 2 -i 10 -a 2 -x {1.0 5.0 9 ------- null}
- -t 0.27 -s 1 -d 2 -p cbr -e 1000 -c 2 -i 18 -a 2 -x {1.0 5.0 17 ------- null}
h -t 0.27 -s 1 -d 2 -p cbr -e 1000 -c 2 -i 18 -a 2 -x {1.0 5.0 -1 ------- null}
- -t 0.276 -s 2 -d 3 -p cbr -e 1000 -c 2 -i 7 -a 2 -x {1.0 5.0 6 ------- null}
h -t 0.276 -s 2 -d 3 -p cbr -e 1000 -c 2 -i 7 -a 2 -x {1.0 5.0 -1 ------- null}
+ -t 0.276 -s 1 -d 2 -p cbr -e 1000 -c 2 -i 23 -a 2 -x {1.0 5.0 22 ------- null}
r -t 0.28 -s 1 -d 2 -p cbr -e 1000 -c 2 -i 11 -a 2 -x {1.0 5.0 10 ------- null}
+ -t 0.28 -s 2 -d 3 -p cbr -e 1000 -c 2 -i 11 -a 2 -x {1.0 5.0 10 ------- null}
- -t 0.28 -s 1 -d 2 -p cbr -e 1000 -c 2 -i 19 -a 2 -x {1.0 5.0 18 ------- null}
h -t 0.28 -s 1 -d 2 -p cbr -e 1000 -c 2 -i 19 -a 2 -x {1.0 5.0 -1 ------- null}
r -t 0.282 -s 2 -d 3 -p cbr -e 1000 -c 2 -i 2 -a 2 -x {1.0 5.0 1 ------- null}
+ -t 0.282 -s 3 -d 5 -p cbr -e 1000 -c 2 -i 2 -a 2 -x {1.0 5.0 1 ------- null}
- -t 0.282 -s 3 -d 5 -p cbr -e 1000 -c 2 -i 2 -a 2 -x {1.0 5.0 1 ------- null}
h -t 0.282 -s 3 -d 5 -p cbr -e 1000 -c 2 -i 2 -a 2 -x {1.0 5.0 -1 ------- null}
+ -t 0.284 -s 1 -d 2 -p cbr -e 1000 -c 2 -i 24 -a 2 -x {1.0 5.0 23 ------- null}
r -t 0.29 -s 1 -d 2 -p cbr -e 1000 -c 2 -i 12 -a 2 -x {1.0 5.0 11 ------- null}
+ -t 0.29 -s 2 -d 3 -p cbr -e 1000 -c 2 -i 12 -a 2 -x {1.0 5.0 11 ------- null}
- -t 0.29 -s 1 -d 2 -p cbr -e 1000 -c 2 -i 20 -a 2 -x {1.0 5.0 19 ------- null}
h -t 0.29 -s 1 -d 2 -p cbr -e 1000 -c 2 -i 20 -a 2 -x {1.0 5.0 -1 ------- null}
- -t 0.292 -s 2 -d 3 -p cbr -e 1000 -c 2 -i 8 -a 2 -x {1.0 5.0 7 ------- null}
h -t 0.292 -s 2 -d 3 -p cbr -e 1000 -c 2 -i 8 -a 2 -x {1.0 5.0 -1 ------- null}
+ -t 0.292 -s 1 -d 2 -p cbr -e 1000 -c 2 -i 25 -a 2 -x {1.0 5.0 24 ------- null}
r -t 0.298 -s 2 -d 3 -p cbr -e 1000 -c 2 -i 3 -a 2 -x {1.0 5.0 2 ------- null}
+ -t 0.298 -s 3 -d 5 -p cbr -e 1000 -c 2 -i 3 -a 2 -x {1.0 5.0 2 ------- null}
- -t 0.298 -s 3 -d 5 -p cbr -e 1000 -c 2 -i 3 -a 2 -x {1.0 5.0 2 ------- null}
h -t 0.298 -s 3 -d 5 -p cbr -e 1000 -c 2 -i 3 -a 2 -x {1.0 5.0 -1 ------- null}
r -t 0.3 -s 1 -d 2 -p cbr -e 1000 -c 2 -i 13 -a 2 -x {1.0 5.0 12 ------- null}
+ -t 0.3 -s 2 -d 3 -p cbr -e 1000 -c 2 -i 13 -a 2 -x {1.0 5.0 12 ------- null}
- -t 0.3 -s 1 -d 2 -p cbr -e 1000 -c 2 -i 21 -a 2 -x {1.0 5.0 20 ------- null}
h -t 0.3 -s 1 -d 2 -p cbr -e 1000 -c 2 -i 21 -a 2 -x {1.0 5.0 -1 ------- null}
+ -t 0.3 -s 1 -d 2 -p cbr -e 1000 -c 2 -i 26 -a 2 -x {1.0 5.0 25 ------- null}
- -t 0.308 -s 2 -d 3 -p cbr -e 1000 -c 2 -i 9 -a 2 -x {1.0 5.0 8 ------- null}
h -t 0.308 -s 2 -d 3 -p cbr -e 1000 -c 2 -i 9 -a 2 -x {1.0 5.0 -1 ------- null}
+ -t 0.308 -s 1 -d 2 -p cbr -e 1000 -c 2 -i 27 -a 2 -x {1.0 5.0 26 ------- null}
r -t 0.31 -s 1 -d 2 -p cbr -e 1000 -c 2 -i 14 -a 2 -x {1.0 5.0 13 ------- null}
+ -t 0.31 -s 2 -d 3 -p cbr -e 1000 -c 2 -i 14 -a 2 -x {1.0 5.0 13 ------- null}
- -t 0.31 -s 1 -d 2 -p cbr -e 1000 -c 2 -i 22 -a 2 -x {1.0 5.0 21 ------- null}
h -t 0.31 -s 1 -d 2 -p cbr -e 1000 -c 2 -i 22 -a 2 -x {1.0 5.0 -1 ------- null}
r -t 0.31144 -s 3 -d 4 -p tcp -e 40 -c 1 -i 1 -a 1 -x {0.0 4.0 0 ------- null}
+ -t 0.31144 -s 4 -d 3 -p ack -e 40 -c 1 -i 28 -a 1 -x {4.0 0.0 0 ------- null}
- -t 0.31144 -s 4 -d 3 -p ack -e 40 -c 1 -i 28 -a 1 -x {4.0 0.0 0 ------- null}
h -t 0.31144 -s 4 -d 3 -p ack -e 40 -c 1 -i 28 -a 1 -x {4.0 0.0 -1 ------- null}
r -t 0.314 -s 2 -d 3 -p cbr -e 1000 -c 2 -i 4 -a 2 -x {1.0 5.0 3 ------- null}
+ -t 0.314 -s 3 -d 5 -p cbr -e 1000 -c 2 -i 4 -a 2 -x {1.0 5.0 3 ------- null}
- -t 0.314 -s 3 -d 5 -p cbr -e 1000 -c 2 -i 4 -a 2 -x {1.0 5.0 3 ------- null}
h -t 0.314 -s 3 -d 5 -p cbr -e 1000 -c 2 -i 4 -a 2 -x {1.0 5.0 -1 ------- null}
+ -t 0.316 -s 1 -d 2 -p cbr -e 1000 -c 2 -i 29 -a 2 -x {1.0 5.0 27 ------- null}
r -t 0.32 -s 1 -d 2 -p cbr -e 1000 -c 2 -i 15 -a 2 -x {1.0 5.0 14 ------- null}
+ -t 0.32 -s 2 -d 3 -p cbr -e 1000 -c 2 -i 15 -a 2 -x {1.0 5.0 14 ------- null}
- -t 0.32 -s 1 -d 2 -p cbr -e 1000 -c 2 -i 23 -a 2 -x {1.0 5.0 22 ------- null}
h -t 0.32 -s 1 -d 2 -p cbr -e 1000 -c 2 -i 23 -a 2 -x {1.0 5.0 -1 ------- null}
- -t 0.324 -s 2 -d 3 -p cbr -e 1000 -c 2 -i 10 -a 2 -x {1.0 5.0 9 ------- null}
h -t 0.324 -s 2 -d 3 -p cbr -e 1000 -c 2 -i 10 -a 2 -x {1.0 5.0 -1 ------- null}
+ -t 0.324 -s 1 -d 2 -p cbr -e 1000 -c 2 -i 30 -a 2 -x {1.0 5.0 28 ------- null}
r -t 0.33 -s 2 -d 3 -p cbr -e 1000 -c 2 -i 5 -a 2 -x {1.0 5.0 4 ------- null}
+ -t 0.33 -s 3 -d 5 -p cbr -e 1000 -c 2 -i 5 -a 2 -x {1.0 5.0 4 ------- null}
- -t 0.33 -s 3 -d 5 -p cbr -e 1000 -c 2 -i 5 -a 2 -x {1.0 5.0 4 ------- null}
h -t 0.33 -s 3 -d 5 -p cbr -e 1000 -c 2 -i 5 -a 2 -x {1.0 5.0 -1 ------- null}
r -t 0.33 -s 1 -d 2 -p cbr -e 1000 -c 2 -i 16 -a 2 -x {1.0 5.0 15 ------- null}
+ -t 0.33 -s 2 -d 3 -p cbr -e 1000 -c 2 -i 16 -a 2 -x {1.0 5.0 15 ------- null}
- -t 0.33 -s 1 -d 2 -p cbr -e 1000 -c 2 -i 24 -a 2 -x {1.0 5.0 23 ------- null}
h -t 0.33 -s 1 -d 2 -p cbr -e 1000 -c 2 -i 24 -a 2 -x {1.0 5.0 -1 ------- null}
+ -t 0.332 -s 1 -d 2 -p cbr -e 1000 -c 2 -i 31 -a 2 -x {1.0 5.0 29 ------- null}
r -t 0.34 -s 1 -d 2 -p cbr -e 1000 -c 2 -i 17 -a 2 -x {1.0 5.0 16 ------- null}
+ -t 0.34 -s 2 -d 3 -p cbr -e 1000 -c 2 -i 17 -a 2 -x {1.0 5.0 16 ------- null}
- -t 0.34 -s 2 -d 3 -p cbr -e 1000 -c 2 -i 11 -a 2 -x {1.0 5.0 10 ------- null}
h -t 0.34 -s 2 -d 3 -p cbr -e 1000 -c 2 -i 11 -a 2 -x {1.0 5.0 -1 ------- null}
- -t 0.34 -s 1 -d 2 -p cbr -e 1000 -c 2 -i 25 -a 2 -x {1.0 5.0 24 ------- null}
h -t 0.34 -s 1 -d 2 -p cbr -e 1000 -c 2 -i 25 -a 2 -x {1.0 5.0 -1 ------- null}
+ -t 0.34 -s 1 -d 2 -p cbr -e 1000 -c 2 -i 32 -a 2 -x {1.0 5.0 30 ------- null}
r -t 0.346 -s 3 -d 5 -p cbr -e 1000 -c 2 -i 0 -a 2 -x {1.0 5.0 0 ------- null}
r -t 0.346 -s 2 -d 3 -p cbr -e 1000 -c 2 -i 6 -a 2 -x {1.0 5.0 5 ------- null}
+ -t 0.346 -s 3 -d 5 -p cbr -e 1000 -c 2 -i 6 -a 2 -x {1.0 5.0 5 ------- null}
- -t 0.346 -s 3 -d 5 -p cbr -e 1000 -c 2 -i 6 -a 2 -x {1.0 5.0 5 ------- null}
h -t 0.346 -s 3 -d 5 -p cbr -e 1000 -c 2 -i 6 -a 2 -x {1.0 5.0 -1 ------- null}
+ -t 0.348 -s 1 -d 2 -p cbr -e 1000 -c 2 -i 33 -a 2 -x {1.0 5.0 31 ------- null}
r -t 0.35 -s 1 -d 2 -p cbr -e 1000 -c 2 -i 18 -a 2 -x {1.0 5.0 17 ------- null}
+ -t 0.35 -s 2 -d 3 -p cbr -e 1000 -c 2 -i 18 -a 2 -x {1.0 5.0 17 ------- null}
- -t 0.35 -s 1 -d 2 -p cbr -e 1000 -c 2 -i 26 -a 2 -x {1.0 5.0 25 ------- null}
h -t 0.35 -s 1 -d 2 -p cbr -e 1000 -c 2 -i 26 -a 2 -x {1.0 5.0 -1 ------- null}
- -t 0.356 -s 2 -d 3 -p cbr -e 1000 -c 2 -i 12 -a 2 -x {1.0 5.0 11 ------- null}
h -t 0.356 -s 2 -d 3 -p cbr -e 1000 -c 2 -i 12 -a 2 -x {1.0 5.0 -1 ------- null}
+ -t 0.356 -s 1 -d 2 -p cbr -e 1000 -c 2 -i 34 -a 2 -x {1.0 5.0 32 ------- null}
r -t 0.36 -s 1 -d 2 -p cbr -e 1000 -c 2 -i 19 -a 2 -x {1.0 5.0 18 ------- null}
+ -t 0.36 -s 2 -d 3 -p cbr -e 1000 -c 2 -i 19 -a 2 -x {1.0 5.0 18 ------- null}
- -t 0.36 -s 1 -d 2 -p cbr -e 1000 -c 2 -i 27 -a 2 -x {1.0 5.0 26 ------- null}
h -t 0.36 -s 1 -d 2 -p cbr -e 1000 -c 2 -i 27 -a 2 -x {1.0 5.0 -1 ------- null}
r -t 0.362 -s 3 -d 5 -p cbr -e 1000 -c 2 -i 2 -a 2 -x {1.0 5.0 1 ------- null}
r -t 0.362 -s 2 -d 3 -p cbr -e 1000 -c 2 -i 7 -a 2 -x {1.0 5.0 6 ------- null}
+ -t 0.362 -s 3 -d 5 -p cbr -e 1000 -c 2 -i 7 -a 2 -x {1.0 5.0 6 ------- null}
- -t 0.362 -s 3 -d 5 -p cbr -e 1000 -c 2 -i 7 -a 2 -x {1.0 5.0 6 ------- null}
h -t 0.362 -s 3 -d 5 -p cbr -e 1000 -c 2 -i 7 -a 2 -x {1.0 5.0 -1 ------- null}
+ -t 0.364 -s 1 -d 2 -p cbr -e 1000 -c 2 -i 35 -a 2 -x {1.0 5.0 33 ------- null}
r -t 0.37 -s 1 -d 2 -p cbr -e 1000 -c 2 -i 20 -a 2 -x {1.0 5.0 19 ------- null}
+ -t 0.37 -s 2 -d 3 -p cbr -e 1000 -c 2 -i 20 -a 2 -x {1.0 5.0 19 ------- null}
- -t 0.37 -s 1 -d 2 -p cbr -e 1000 -c 2 -i 29 -a 2 -x {1.0 5.0 27 ------- null}
h -t 0.37 -s 1 -d 2 -p cbr -e 1000 -c 2 -i 29 -a 2 -x {1.0 5.0 -1 ------- null}
- -t 0.372 -s 2 -d 3 -p cbr -e 1000 -c 2 -i 13 -a 2 -x {1.0 5.0 12 ------- null}
h -t 0.372 -s 2 -d 3 -p cbr -e 1000 -c 2 -i 13 -a 2 -x {1.0 5.0 -1 ------- null}
+ -t 0.372 -s 1 -d 2 -p cbr -e 1000 -c 2 -i 36 -a 2 -x {1.0 5.0 34 ------- null}
r -t 0.378 -s 3 -d 5 -p cbr -e 1000 -c 2 -i 3 -a 2 -x {1.0 5.0 2 ------- null}
r -t 0.378 -s 2 -d 3 -p cbr -e 1000 -c 2 -i 8 -a 2 -x {1.0 5.0 7 ------- null}
+ -t 0.378 -s 3 -d 5 -p cbr -e 1000 -c 2 -i 8 -a 2 -x {1.0 5.0 7 ------- null}
- -t 0.378 -s 3 -d 5 -p cbr -e 1000 -c 2 -i 8 -a 2 -x {1.0 5.0 7 ------- null}
h -t 0.378 -s 3 -d 5 -p cbr -e 1000 -c 2 -i 8 -a 2 -x {1.0 5.0 -1 ------- null}
r -t 0.38 -s 1 -d 2 -p cbr -e 1000 -c 2 -i 21 -a 2 -x {1.0 5.0 20 ------- null}
+ -t 0.38 -s 2 -d 3 -p cbr -e 1000 -c 2 -i 21 -a 2 -x {1.0 5.0 20 ------- null}
- -t 0.38 -s 1 -d 2 -p cbr -e 1000 -c 2 -i 30 -a 2 -x {1.0 5.0 28 ------- null}
h -t 0.38 -s 1 -d 2 -p cbr -e 1000 -c 2 -i 30 -a 2 -x {1.0 5.0 -1 ------- null}
+ -t 0.38 -s 1 -d 2 -p cbr -e 1000 -c 2 -i 37 -a 2 -x {1.0 5.0 35 ------- null}
r -t 0.38184 -s 4 -d 3 -p ack -e 40 -c 1 -i 28 -a 1 -x {4.0 0.0 0 ------- null}
+ -t 0.38184 -s 3 -d 2 -p ack -e 40 -c 1 -i 28 -a 1 -x {4.0 0.0 0 ------- null}
- -t 0.38184 -s 3 -d 2 -p ack -e 40 -c 1 -i 28 -a 1 -x {4.0 0.0 0 ------- null}
h -t 0.38184 -s 3 -d 2 -p ack -e 40 -c 1 -i 28 -a 1 -x {4.0 0.0 -1 ------- null}
- -t 0.388 -s 2 -d 3 -p cbr -e 1000 -c 2 -i 14 -a 2 -x {1.0 5.0 13 ------- null}
h -t 0.388 -s 2 -d 3 -p cbr -e 1000 -c 2 -i 14 -a 2 -x {1.0 5.0 -1 ------- null}
+ -t 0.388 -s 1 -d 2 -p cbr -e 1000 -c 2 -i 38 -a 2 -x {1.0 5.0 36 ------- null}
r -t 0.39 -s 1 -d 2 -p cbr -e 1000 -c 2 -i 22 -a 2 -x {1.0 5.0 21 ------- null}
+ -t 0.39 -s 2 -d 3 -p cbr -e 1000 -c 2 -i 22 -a 2 -x {1.0 5.0 21 ------- null}
- -t 0.39 -s 1 -d 2 -p cbr -e 1000 -c 2 -i 31 -a 2 -x {1.0 5.0 29 ------- null}
h -t 0.39 -s 1 -d 2 -p cbr -e 1000 -c 2 -i 31 -a 2 -x {1.0 5.0 -1 ------- null}
r -t 0.394 -s 3 -d 5 -p cbr -e 1000 -c 2 -i 4 -a 2 -x {1.0 5.0 3 ------- null}
r -t 0.394 -s 2 -d 3 -p cbr -e 1000 -c 2 -i 9 -a 2 -x {1.0 5.0 8 ------- null}
+ -t 0.394 -s 3 -d 5 -p cbr -e 1000 -c 2 -i 9 -a 2 -x {1.0 5.0 8 ------- null}
- -t 0.394 -s 3 -d 5 -p cbr -e 1000 -c 2 -i 9 -a 2 -x {1.0 5.0 8 ------- null}
h -t 0.394 -s 3 -d 5 -p cbr -e 1000 -c 2 -i 9 -a 2 -x {1.0 5.0 -1 ------- null}
+ -t 0.396 -s 1 -d 2 -p cbr -e 1000 -c 2 -i 39 -a 2 -x {1.0 5.0 37 ------- null}
r -t 0.4 -s 1 -d 2 -p cbr -e 1000 -c 2 -i 23 -a 2 -x {1.0 5.0 22 ------- null}
+ -t 0.4 -s 2 -d 3 -p cbr -e 1000 -c 2 -i 23 -a 2 -x {1.0 5.0 22 ------- null}
- -t 0.4 -s 1 -d 2 -p cbr -e 1000 -c 2 -i 32 -a 2 -x {1.0 5.0 30 ------- null}
h -t 0.4 -s 1 -d 2 -p cbr -e 1000 -c 2 -i 32 -a 2 -x {1.0 5.0 -1 ------- null}
- -t 0.404 -s 2 -d 3 -p cbr -e 1000 -c 2 -i 15 -a 2 -x {1.0 5.0 14 ------- null}
h -t 0.404 -s 2 -d 3 -p cbr -e 1000 -c 2 -i 15 -a 2 -x {1.0 5.0 -1 ------- null}
+ -t 0.404 -s 1 -d 2 -p cbr -e 1000 -c 2 -i 40 -a 2 -x {1.0 5.0 38 ------- null}
r -t 0.41 -s 3 -d 5 -p cbr -e 1000 -c 2 -i 5 -a 2 -x {1.0 5.0 4 ------- null}
r -t 0.41 -s 2 -d 3 -p cbr -e 1000 -c 2 -i 10 -a 2 -x {1.0 5.0 9 ------- null}
+ -t 0.41 -s 3 -d 5 -p cbr -e 1000 -c 2 -i 10 -a 2 -x {1.0 5.0 9 ------- null}
- -t 0.41 -s 3 -d 5 -p cbr -e 1000 -c 2 -i 10 -a 2 -x {1.0 5.0 9 ------- null}
h -t 0.41 -s 3 -d 5 -p cbr -e 1000 -c 2 -i 10 -a 2 -x {1.0 5.0 -1 ------- null}
r -t 0.41 -s 1 -d 2 -p cbr -e 1000 -c 2 -i 24 -a 2 -x {1.0 5.0 23 ------- null}
+ -t 0.41 -s 2 -d 3 -p cbr -e 1000 -c 2 -i 24 -a 2 -x {1.0 5.0 23 ------- null}
- -t 0.41 -s 1 -d 2 -p cbr -e 1000 -c 2 -i 33 -a 2 -x {1.0 5.0 31 ------- null}
h -t 0.41 -s 1 -d 2 -p cbr -e 1000 -c 2 -i 33 -a 2 -x {1.0 5.0 -1 ------- null}
+ -t 0.412 -s 1 -d 2 -p cbr -e 1000 -c 2 -i 41 -a 2 -x {1.0 5.0 39 ------- null}
r -t 0.42 -s 1 -d 2 -p cbr -e 1000 -c 2 -i 25 -a 2 -x {1.0 5.0 24 ------- null}
+ -t 0.42 -s 2 -d 3 -p cbr -e 1000 -c 2 -i 25 -a 2 -x {1.0 5.0 24 ------- null}
d -t 0.42 -s 2 -d 3 -p cbr -e 1000 -c 2 -i 25 -a 2 -x {1.0 5.0 24 ------- null}
- -t 0.42 -s 2 -d 3 -p cbr -e 1000 -c 2 -i 16 -a 2 -x {1.0 5.0 15 ------- null}
h -t 0.42 -s 2 -d 3 -p cbr -e 1000 -c 2 -i 16 -a 2 -x {1.0 5.0 -1 ------- null}
- -t 0.42 -s 1 -d 2 -p cbr -e 1000 -c 2 -i 34 -a 2 -x {1.0 5.0 32 ------- null}
h -t 0.42 -s 1 -d 2 -p cbr -e 1000 -c 2 -i 34 -a 2 -x {1.0 5.0 -1 ------- null}
+ -t 0.42 -s 1 -d 2 -p cbr -e 1000 -c 2 -i 42 -a 2 -x {1.0 5.0 40 ------- null}
r -t 0.426 -s 3 -d 5 -p cbr -e 1000 -c 2 -i 6 -a 2 -x {1.0 5.0 5 ------- null}
r -t 0.426 -s 2 -d 3 -p cbr -e 1000 -c 2 -i 11 -a 2 -x {1.0 5.0 10 ------- null}
+ -t 0.426 -s 3 -d 5 -p cbr -e 1000 -c 2 -i 11 -a 2 -x {1.0 5.0 10 ------- null}
- -t 0.426 -s 3 -d 5 -p cbr -e 1000 -c 2 -i 11 -a 2 -x {1.0 5.0 10 ------- null}
h -t 0.426 -s 3 -d 5 -p cbr -e 1000 -c 2 -i 11 -a 2 -x {1.0 5.0 -1 ------- null}
+ -t 0.428 -s 1 -d 2 -p cbr -e 1000 -c 2 -i 43 -a 2 -x {1.0 5.0 41 ------- null}
r -t 0.43 -s 1 -d 2 -p cbr -e 1000 -c 2 -i 26 -a 2 -x {1.0 5.0 25 ------- null}
+ -t 0.43 -s 2 -d 3 -p cbr -e 1000 -c 2 -i 26 -a 2 -x {1.0 5.0 25 ------- null}
- -t 0.43 -s 1 -d 2 -p cbr -e 1000 -c 2 -i 35 -a 2 -x {1.0 5.0 33 ------- null}
h -t 0.43 -s 1 -d 2 -p cbr -e 1000 -c 2 -i 35 -a 2 -x {1.0 5.0 -1 ------- null}
- -t 0.436 -s 2 -d 3 -p cbr -e 1000 -c 2 -i 17 -a 2 -x {1.0 5.0 16 ------- null}
h -t 0.436 -s 2 -d 3 -p cbr -e 1000 -c 2 -i 17 -a 2 -x {1.0 5.0 -1 ------- null}
+ -t 0.436 -s 1 -d 2 -p cbr -e 1000 -c 2 -i 44 -a 2 -x {1.0 5.0 42 ------- null}
r -t 0.44 -s 1 -d 2 -p cbr -e 1000 -c 2 -i 27 -a 2 -x {1.0 5.0 26 ------- null}
+ -t 0.44 -s 2 -d 3 -p cbr -e 1000 -c 2 -i 27 -a 2 -x {1.0 5.0 26 ------- null}
- -t 0.44 -s 1 -d 2 -p cbr -e 1000 -c 2 -i 36 -a 2 -x {1.0 5.0 34 ------- null}
h -t 0.44 -s 1 -d 2 -p cbr -e 1000 -c 2 -i 36 -a 2 -x {1.0 5.0 -1 ------- null}
r -t 0.442 -s 3 -d 5 -p cbr -e 1000 -c 2 -i 7 -a 2 -x {1.0 5.0 6 ------- null}
r -t 0.442 -s 2 -d 3 -p cbr -e 1000 -c 2 -i 12 -a 2 -x {1.0 5.0 11 ------- null}
+ -t 0.442 -s 3 -d 5 -p cbr -e 1000 -c 2 -i 12 -a 2 -x {1.0 5.0 11 ------- null}
- -t 0.442 -s 3 -d 5 -p cbr -e 1000 -c 2 -i 12 -a 2 -x {1.0 5.0 11 ------- null}
h -t 0.442 -s 3 -d 5 -p cbr -e 1000 -c 2 -i 12 -a 2 -x {1.0 5.0 -1 ------- null}
+ -t 0.444 -s 1 -d 2 -p cbr -e 1000 -c 2 -i 45 -a 2 -x {1.0 5.0 43 ------- null}
r -t 0.45 -s 1 -d 2 -p cbr -e 1000 -c 2 -i 29 -a 2 -x {1.0 5.0 27 ------- null}
+ -t 0.45 -s 2 -d 3 -p cbr -e 1000 -c 2 -i 29 -a 2 -x {1.0 5.0 27 ------- null}
d -t 0.45 -s 2 -d 3 -p cbr -e 1000 -c 2 -i 29 -a 2 -x {1.0 5.0 27 ------- null}
- -t 0.45 -s 1 -d 2 -p cbr -e 1000 -c 2 -i 37 -a 2 -x {1.0 5.0 35 ------- null}
h -t 0.45 -s 1 -d 2 -p cbr -e 1000 -c 2 -i 37 -a 2 -x {1.0 5.0 -1 ------- null}
- -t 0.452 -s 2 -d 3 -p cbr -e 1000 -c 2 -i 18 -a 2 -x {1.0 5.0 17 ------- null}
h -t 0.452 -s 2 -d 3 -p cbr -e 1000 -c 2 -i 18 -a 2 -x {1.0 5.0 -1 ------- null}
+ -t 0.452 -s 1 -d 2 -p cbr -e 1000 -c 2 -i 46 -a 2 -x {1.0 5.0 44 ------- null}
r -t 0.45248 -s 3 -d 2 -p ack -e 40 -c 1 -i 28 -a 1 -x {4.0 0.0 0 ------- null}
+ -t 0.45248 -s 2 -d 0 -p ack -e 40 -c 1 -i 28 -a 1 -x {4.0 0.0 0 ------- null}
- -t 0.45248 -s 2 -d 0 -p ack -e 40 -c 1 -i 28 -a 1 -x {4.0 0.0 0 ------- null}
h -t 0.45248 -s 2 -d 0 -p ack -e 40 -c 1 -i 28 -a 1 -x {4.0 0.0 -1 ------- null}
r -t 0.458 -s 3 -d 5 -p cbr -e 1000 -c 2 -i 8 -a 2 -x {1.0 5.0 7 ------- null}
r -t 0.458 -s 2 -d 3 -p cbr -e 1000 -c 2 -i 13 -a 2 -x {1.0 5.0 12 ------- null}
+ -t 0.458 -s 3 -d 5 -p cbr -e 1000 -c 2 -i 13 -a 2 -x {1.0 5.0 12 ------- null}
- -t 0.458 -s 3 -d 5 -p cbr -e 1000 -c 2 -i 13 -a 2 -x {1.0 5.0 12 ------- null}
h -t 0.458 -s 3 -d 5 -p cbr -e 1000 -c 2 -i 13 -a 2 -x {1.0 5.0 -1 ------- null}
r -t 0.46 -s 1 -d 2 -p cbr -e 1000 -c 2 -i 30 -a 2 -x {1.0 5.0 28 ------- null}
+ -t 0.46 -s 2 -d 3 -p cbr -e 1000 -c 2 -i 30 -a 2 -x {1.0 5.0 28 ------- null}
- -t 0.46 -s 1 -d 2 -p cbr -e 1000 -c 2 -i 38 -a 2 -x {1.0 5.0 36 ------- null}
h -t 0.46 -s 1 -d 2 -p cbr -e 1000 -c 2 -i 38 -a 2 -x {1.0 5.0 -1 ------- null}
+ -t 0.46 -s 1 -d 2 -p cbr -e 1000 -c 2 -i 47 -a 2 -x {1.0 5.0 45 ------- null}
- -t 0.468 -s 2 -d 3 -p cbr -e 1000 -c 2 -i 19 -a 2 -x {1.0 5.0 18 ------- null}
h -t 0.468 -s 2 -d 3 -p cbr -e 1000 -c 2 -i 19 -a 2 -x {1.0 5.0 -1 ------- null}
+ -t 0.468 -s 1 -d 2 -p cbr -e 1000 -c 2 -i 48 -a 2 -x {1.0 5.0 46 ------- null}
r -t 0.47 -s 1 -d 2 -p cbr -e 1000 -c 2 -i 31 -a 2 -x {1.0 5.0 29 ------- null}
+ -t 0.47 -s 2 -d 3 -p cbr -e 1000 -c 2 -i 31 -a 2 -x {1.0 5.0 29 ------- null}
- -t 0.47 -s 1 -d 2 -p cbr -e 1000 -c 2 -i 39 -a 2 -x {1.0 5.0 37 ------- null}
h -t 0.47 -s 1 -d 2 -p cbr -e 1000 -c 2 -i 39 -a 2 -x {1.0 5.0 -1 ------- null}
r -t 0.474 -s 3 -d 5 -p cbr -e 1000 -c 2 -i 9 -a 2 -x {1.0 5.0 8 ------- null}
r -t 0.474 -s 2 -d 3 -p cbr -e 1000 -c 2 -i 14 -a 2 -x {1.0 5.0 13 ------- null}
+ -t 0.474 -s 3 -d 5 -p cbr -e 1000 -c 2 -i 14 -a 2 -x {1.0 5.0 13 ------- null}
- -t 0.474 -s 3 -d 5 -p cbr -e 1000 -c 2 -i 14 -a 2 -x {1.0 5.0 13 ------- null}
h -t 0.474 -s 3 -d 5 -p cbr -e 1000 -c 2 -i 14 -a 2 -x {1.0 5.0 -1 ------- null}
+ -t 0.476 -s 1 -d 2 -p cbr -e 1000 -c 2 -i 49 -a 2 -x {1.0 5.0 47 ------- null}
r -t 0.48 -s 1 -d 2 -p cbr -e 1000 -c 2 -i 32 -a 2 -x {1.0 5.0 30 ------- null}
+ -t 0.48 -s 2 -d 3 -p cbr -e 1000 -c 2 -i 32 -a 2 -x {1.0 5.0 30 ------- null}
d -t 0.48 -s 2 -d 3 -p cbr -e 1000 -c 2 -i 32 -a 2 -x {1.0 5.0 30 ------- null}
- -t 0.48 -s 1 -d 2 -p cbr -e 1000 -c 2 -i 40 -a 2 -x {1.0 5.0 38 ------- null}
h -t 0.48 -s 1 -d 2 -p cbr -e 1000 -c 2 -i 40 -a 2 -x {1.0 5.0 -1 ------- null}
- -t 0.484 -s 2 -d 3 -p cbr -e 1000 -c 2 -i 20 -a 2 -x {1.0 5.0 19 ------- null}
h -t 0.484 -s 2 -d 3 -p cbr -e 1000 -c 2 -i 20 -a 2 -x {1.0 5.0 -1 ------- null}
+ -t 0.484 -s 1 -d 2 -p cbr -e 1000 -c 2 -i 50 -a 2 -x {1.0 5.0 48 ------- null}
r -t 0.49 -s 3 -d 5 -p cbr -e 1000 -c 2 -i 10 -a 2 -x {1.0 5.0 9 ------- null}
r -t 0.49 -s 2 -d 3 -p cbr -e 1000 -c 2 -i 15 -a 2 -x {1.0 5.0 14 ------- null}
+ -t 0.49 -s 3 -d 5 -p cbr -e 1000 -c 2 -i 15 -a 2 -x {1.0 5.0 14 ------- null}
- -t 0.49 -s 3 -d 5 -p cbr -e 1000 -c 2 -i 15 -a 2 -x {1.0 5.0 14 ------- null}
h -t 0.49 -s 3 -d 5 -p cbr -e 1000 -c 2 -i 15 -a 2 -x {1.0 5.0 -1 ------- null}
r -t 0.49 -s 1 -d 2 -p cbr -e 1000 -c 2 -i 33 -a 2 -x {1.0 5.0 31 ------- null}
+ -t 0.49 -s 2 -d 3 -p cbr -e 1000 -c 2 -i 33 -a 2 -x {1.0 5.0 31 ------- null}
- -t 0.49 -s 1 -d 2 -p cbr -e 1000 -c 2 -i 41 -a 2 -x {1.0 5.0 39 ------- null}
h -t 0.49 -s 1 -d 2 -p cbr -e 1000 -c 2 -i 41 -a 2 -x {1.0 5.0 -1 ------- null}
+ -t 0.492 -s 1 -d 2 -p cbr -e 1000 -c 2 -i 51 -a 2 -x {1.0 5.0 49 ------- null}
r -t 0.5 -s 1 -d 2 -p cbr -e 1000 -c 2 -i 34 -a 2 -x {1.0 5.0 32 ------- null}
+ -t 0.5 -s 2 -d 3 -p cbr -e 1000 -c 2 -i 34 -a 2 -x {1.0 5.0 32 ------- null}
d -t 0.5 -s 2 -d 3 -p cbr -e 1000 -c 2 -i 34 -a 2 -x {1.0 5.0 32 ------- null}
- -t 0.5 -s 2 -d 3 -p cbr -e 1000 -c 2 -i 21 -a 2 -x {1.0 5.0 20 ------- null}
h -t 0.5 -s 2 -d 3 -p cbr -e 1000 -c 2 -i 21 -a 2 -x {1.0 5.0 -1 ------- null}
- -t 0.5 -s 1 -d 2 -p cbr -e 1000 -c 2 -i 42 -a 2 -x {1.0 5.0 40 ------- null}
h -t 0.5 -s 1 -d 2 -p cbr -e 1000 -c 2 -i 42 -a 2 -x {1.0 5.0 -1 ------- null}
+ -t 0.5 -s 1 -d 2 -p cbr -e 1000 -c 2 -i 52 -a 2 -x {1.0 5.0 50 ------- null}
r -t 0.506 -s 3 -d 5 -p cbr -e 1000 -c 2 -i 11 -a 2 -x {1.0 5.0 10 ------- null}
r -t 0.506 -s 2 -d 3 -p cbr -e 1000 -c 2 -i 16 -a 2 -x {1.0 5.0 15 ------- null}
+ -t 0.506 -s 3 -d 5 -p cbr -e 1000 -c 2 -i 16 -a 2 -x {1.0 5.0 15 ------- null}
- -t 0.506 -s 3 -d 5 -p cbr -e 1000 -c 2 -i 16 -a 2 -x {1.0 5.0 15 ------- null}
h -t 0.506 -s 3 -d 5 -p cbr -e 1000 -c 2 -i 16 -a 2 -x {1.0 5.0 -1 ------- null}
+ -t 0.508 -s 1 -d 2 -p cbr -e 1000 -c 2 -i 53 -a 2 -x {1.0 5.0 51 ------- null}
r -t 0.51 -s 1 -d 2 -p cbr -e 1000 -c 2 -i 35 -a 2 -x {1.0 5.0 33 ------- null}
+ -t 0.51 -s 2 -d 3 -p cbr -e 1000 -c 2 -i 35 -a 2 -x {1.0 5.0 33 ------- null}
- -t 0.51 -s 1 -d 2 -p cbr -e 1000 -c 2 -i 43 -a 2 -x {1.0 5.0 41 ------- null}
h -t 0.51 -s 1 -d 2 -p cbr -e 1000 -c 2 -i 43 -a 2 -x {1.0 5.0 -1 ------- null}
- -t 0.516 -s 2 -d 3 -p cbr -e 1000 -c 2 -i 22 -a 2 -x {1.0 5.0 21 ------- null}
h -t 0.516 -s 2 -d 3 -p cbr -e 1000 -c 2 -i 22 -a 2 -x {1.0 5.0 -1 ------- null}
+ -t 0.516 -s 1 -d 2 -p cbr -e 1000 -c 2 -i 54 -a 2 -x {1.0 5.0 52 ------- null}
r -t 0.52 -s 1 -d 2 -p cbr -e 1000 -c 2 -i 36 -a 2 -x {1.0 5.0 34 ------- null}
+ -t 0.52 -s 2 -d 3 -p cbr -e 1000 -c 2 -i 36 -a 2 -x {1.0 5.0 34 ------- null}
- -t 0.52 -s 1 -d 2 -p cbr -e 1000 -c 2 -i 44 -a 2 -x {1.0 5.0 42 ------- null}
h -t 0.52 -s 1 -d 2 -p cbr -e 1000 -c 2 -i 44 -a 2 -x {1.0 5.0 -1 ------- null}
r -t 0.522 -s 3 -d 5 -p cbr -e 1000 -c 2 -i 12 -a 2 -x {1.0 5.0 11 ------- null}
r -t 0.522 -s 2 -d 3 -p cbr -e 1000 -c 2 -i 17 -a 2 -x {1.0 5.0 16 ------- null}
+ -t 0.522 -s 3 -d 5 -p cbr -e 1000 -c 2 -i 17 -a 2 -x {1.0 5.0 16 ------- null}
- -t 0.522 -s 3 -d 5 -p cbr -e 1000 -c 2 -i 17 -a 2 -x {1.0 5.0 16 ------- null}