+ 0.1 1 2 cbr 1000 ------- 2 1.0 5.0 0 0
- 0.1 1 2 cbr 1000 ------- 2 1.0 5.0 0 0
+ 0.1 0 2 tcp 40 ------- 1 0.0 4.0 0 1
- 0.1 0 2 tcp 40 ------- 1 0.0 4.0 0 1
+ 0.108 1 2 cbr 1000 ------- 2 1.0 5.0 1 2
- 0.11 1 2 cbr 1000 ------- 2 1.0 5.0 1 2
+ 0.116 1 2 cbr 1000 ------- 2 1.0 5.0 2 3
- 0.12 1 2 cbr 1000 ------- 2 1.0 5.0 2 3
+ 0.124 1 2 cbr 1000 ------- 2 1.0 5.0 3 4
- 0.13 1 2 cbr 1000 ------- 2 1.0 5.0 3 4
+ 0.132 1 2 cbr 1000 ------- 2 1.0 5.0 4 5
- 0.14 1 2 cbr 1000 ------- 2 1.0 5.0 4 5
+ 0.14 1 2 cbr 1000 ------- 2 1.0 5.0 5 6
+ 0.148 1 2 cbr 1000 ------- 2 1.0 5.0 6 7
- 0.15 1 2 cbr 1000 ------- 2 1.0 5.0 5 6
+ 0.156 1 2 cbr 1000 ------- 2 1.0 5.0 7 8
- 0.16 1 2 cbr 1000 ------- 2 1.0 5.0 6 7
+ 0.164 1 2 cbr 1000 ------- 2 1.0 5.0 8 9
- 0.17 1 2 cbr 1000 ------- 2 1.0 5.0 7 8
r 0.1704 0 2 tcp 40 ------- 1 0.0 4.0 0 1
+ 0.1704 2 3 tcp 40 ------- 1 0.0 4.0 0 1
- 0.1704 2 3 tcp 40 ------- 1 0.0 4.0 0 1
+ 0.172 1 2 cbr 1000 ------- 2 1.0 5.0 9 10
r 0.18 1 2 cbr 1000 ------- 2 1.0 5.0 0 0
+ 0.18 2 3 cbr 1000 ------- 2 1.0 5.0 0 0
- 0.18 2 3 cbr 1000 ------- 2 1.0 5.0 0 0
- 0.18 1 2 cbr 1000 ------- 2 1.0 5.0 8 9
+ 0.18 1 2 cbr 1000 ------- 2 1.0 5.0 10 11
+ 0.188 1 2 cbr 1000 ------- 2 1.0 5.0 11 12
r 0.19 1 2 cbr 1000 ------- 2 1.0 5.0 1 2
+ 0.19 2 3 cbr 1000 ------- 2 1.0 5.0 1 2
- 0.19 1 2 cbr 1000 ------- 2 1.0 5.0 9 10
- 0.196 2 3 cbr 1000 ------- 2 1.0 5.0 1 2
+ 0.196 1 2 cbr 1000 ------- 2 1.0 5.0 12 13
r 0.2 1 2 cbr 1000 ------- 2 1.0 5.0 2 3
+ 0.2 2 3 cbr 1000 ------- 2 1.0 5.0 2 3
- 0.2 1 2 cbr 1000 ------- 2 1.0 5.0 10 11
+ 0.204 1 2 cbr 1000 ------- 2 1.0 5.0 13 14
r 0.21 1 2 cbr 1000 ------- 2 1.0 5.0 3 4
+ 0.21 2 3 cbr 1000 ------- 2 1.0 5.0 3 4
- 0.21 1 2 cbr 1000 ------- 2 1.0 5.0 11 12
- 0.212 2 3 cbr 1000 ------- 2 1.0 5.0 2 3
+ 0.212 1 2 cbr 1000 ------- 2 1.0 5.0 14 15
r 0.22 1 2 cbr 1000 ------- 2 1.0 5.0 4 5
+ 0.22 2 3 cbr 1000 ------- 2 1.0 5.0 4 5
- 0.22 1 2 cbr 1000 ------- 2 1.0 5.0 12 13
+ 0.22 1 2 cbr 1000 ------- 2 1.0 5.0 15 16
- 0.228 2 3 cbr 1000 ------- 2 1.0 5.0 3 4
+ 0.228 1 2 cbr 1000 ------- 2 1.0 5.0 16 17
r 0.23 1 2 cbr 1000 ------- 2 1.0 5.0 5 6
+ 0.23 2 3 cbr 1000 ------- 2 1.0 5.0 5 6
- 0.23 1 2 cbr 1000 ------- 2 1.0 5.0 13 14
+ 0.236 1 2 cbr 1000 ------- 2 1.0 5.0 17 18
r 0.24 1 2 cbr 1000 ------- 2 1.0 5.0 6 7
+ 0.24 2 3 cbr 1000 ------- 2 1.0 5.0 6 7
- 0.24 1 2 cbr 1000 ------- 2 1.0 5.0 14 15
r 0.24104 2 3 tcp 40 ------- 1 0.0 4.0 0 1
+ 0.24104 3 4 tcp 40 ------- 1 0.0 4.0 0 1
- 0.24104 3 4 tcp 40 ------- 1 0.0 4.0 0 1
- 0.244 2 3 cbr 1000 ------- 2 1.0 5.0 4 5
+ 0.244 1 2 cbr 1000 ------- 2 1.0 5.0 18 19
r 0.25 1 2 cbr 1000 ------- 2 1.0 5.0 7 8
+ 0.25 2 3 cbr 1000 ------- 2 1.0 5.0 7 8
- 0.25 1 2 cbr 1000 ------- 2 1.0 5.0 15 16
+ 0.252 1 2 cbr 1000 ------- 2 1.0 5.0 19 20
r 0.26 1 2 cbr 1000 ------- 2 1.0 5.0 8 9
+ 0.26 2 3 cbr 1000 ------- 2 1.0 5.0 8 9
- 0.26 2 3 cbr 1000 ------- 2 1.0 5.0 5 6
- 0.26 1 2 cbr 1000 ------- 2 1.0 5.0 16 17
+ 0.26 1 2 cbr 1000 ------- 2 1.0 5.0 20 21
r 0.266 2 3 cbr 1000 ------- 2 1.0 5.0 0 0
+ 0.266 3 5 cbr 1000 ------- 2 1.0 5.0 0 0
- 0.266 3 5 cbr 1000 ------- 2 1.0 5.0 0 0
+ 0.268 1 2 cbr 1000 ------- 2 1.0 5.0 21 22
r 0.27 1 2 cbr 1000 ------- 2 1.0 5.0 9 10
+ 0.27 2 3 cbr 1000 ------- 2 1.0 5.0 9 10
- 0.27 1 2 cbr 1000 ------- 2 1.0 5.0 17 18
- 0.276 2 3 cbr 1000 ------- 2 1.0 5.0 6 7
+ 0.276 1 2 cbr 1000 ------- 2 1.0 5.0 22 23
r 0.28 1 2 cbr 1000 ------- 2 1.0 5.0 10 11
+ 0.28 2 3 cbr 1000 ------- 2 1.0 5.0 10 11
- 0.28 1 2 cbr 1000 ------- 2 1.0 5.0 18 19
r 0.282 2 3 cbr 1000 ------- 2 1.0 5.0 1 2
+ 0.282 3 5 cbr 1000 ------- 2 1.0 5.0 1 2
- 0.282 3 5 cbr 1000 ------- 2 1.0 5.0 1 2
+ 0.284 1 2 cbr 1000 ------- 2 1.0 5.0 23 24
r 0.29 1 2 cbr 1000 ------- 2 1.0 5.0 11 12
+ 0.29 2 3 cbr 1000 ------- 2 1.0 5.0 11 12
- 0.29 1 2 cbr 1000 ------- 2 1.0 5.0 19 20
- 0.292 2 3 cbr 1000 ------- 2 1.0 5.0 7 8
+ 0.292 1 2 cbr 1000 ------- 2 1.0 5.0 24 25
r 0.298 2 3 cbr 1000 ------- 2 1.0 5.0 2 3
+ 0.298 3 5 cbr 1000 ------- 2 1.0 5.0 2 3
- 0.298 3 5 cbr 1000 ------- 2 1.0 5.0 2 3
r 0.3 1 2 cbr 1000 ------- 2 1.0 5.0 12 13
+ 0.3 2 3 cbr 1000 ------- 2 1.0 5.0 12 13
- 0.3 1 2 cbr 1000 ------- 2 1.0 5.0 20 21
+ 0.3 1 2 cbr 1000 ------- 2 1.0 5.0 25 26
- 0.308 2 3 cbr 1000 ------- 2 1.0 5.0 8 9
+ 0.308 1 2 cbr 1000 ------- 2 1.0 5.0 26 27
r 0.31 1 2 cbr 1000 ------- 2 1.0 5.0 13 14
+ 0.31 2 3 cbr 1000 ------- 2 1.0 5.0 13 14
- 0.31 1 2 cbr 1000 ------- 2 1.0 5.0 21 22
r 0.31144 3 4 tcp 40 ------- 1 0.0 4.0 0 1
+ 0.31144 4 3 ack 40 ------- 1 4.0 0.0 0 28
- 0.31144 4 3 ack 40 ------- 1 4.0 0.0 0 28
r 0.314 2 3 cbr 1000 ------- 2 1.0 5.0 3 4
+ 0.314 3 5 cbr 1000 ------- 2 1.0 5.0 3 4
- 0.314 3 5 cbr 1000 ------- 2 1.0 5.0 3 4
+ 0.316 1 2 cbr 1000 ------- 2 1.0 5.0 27 29
r 0.32 1 2 cbr 1000 ------- 2 1.0 5.0 14 15
+ 0.32 2 3 cbr 1000 ------- 2 1.0 5.0 14 15
- 0.32 1 2 cbr 1000 ------- 2 1.0 5.0 22 23
- 0.324 2 3 cbr 1000 ------- 2 1.0 5.0 9 10
+ 0.324 1 2 cbr 1000 ------- 2 1.0 5.0 28 30
r 0.33 2 3 cbr 1000 ------- 2 1.0 5.0 4 5
+ 0.33 3 5 cbr 1000 ------- 2 1.0 5.0 4 5
- 0.33 3 5 cbr 1000 ------- 2 1.0 5.0 4 5
r 0.33 1 2 cbr 1000 ------- 2 1.0 5.0 15 16
+ 0.33 2 3 cbr 1000 ------- 2 1.0 5.0 15 16
- 0.33 1 2 cbr 1000 ------- 2 1.0 5.0 23 24
+ 0.332 1 2 cbr 1000 ------- 2 1.0 5.0 29 31
r 0.34 1 2 cbr 1000 ------- 2 1.0 5.0 16 17
+ 0.34 2 3 cbr 1000 ------- 2 1.0 5.0 16 17
- 0.34 2 3 cbr 1000 ------- 2 1.0 5.0 10 11
- 0.34 1 2 cbr 1000 ------- 2 1.0 5.0 24 25
+ 0.34 1 2 cbr 1000 ------- 2 1.0 5.0 30 32
r 0.346 3 5 cbr 1000 ------- 2 1.0 5.0 0 0
r 0.346 2 3 cbr 1000 ------- 2 1.0 5.0 5 6
+ 0.346 3 5 cbr 1000 ------- 2 1.0 5.0 5 6
- 0.346 3 5 cbr 1000 ------- 2 1.0 5.0 5 6
+ 0.348 1 2 cbr 1000 ------- 2 1.0 5.0 31 33
r 0.35 1 2 cbr 1000 ------- 2 1.0 5.0 17 18
+ 0.35 2 3 cbr 1000 ------- 2 1.0 5.0 17 18
- 0.35 1 2 cbr 1000 ------- 2 1.0 5.0 25 26
- 0.356 2 3 cbr 1000 ------- 2 1.0 5.0 11 12
+ 0.356 1 2 cbr 1000 ------- 2 1.0 5.0 32 34
r 0.36 1 2 cbr 1000 ------- 2 1.0 5.0 18 19
+ 0.36 2 3 cbr 1000 ------- 2 1.0 5.0 18 19
- 0.36 1 2 cbr 1000 ------- 2 1.0 5.0 26 27
r 0.362 3 5 cbr 1000 ------- 2 1.0 5.0 1 2
r 0.362 2 3 cbr 1000 ------- 2 1.0 5.0 6 7
+ 0.362 3 5 cbr 1000 ------- 2 1.0 5.0 6 7
- 0.362 3 5 cbr 1000 ------- 2 1.0 5.0 6 7
+ 0.364 1 2 cbr 1000 ------- 2 1.0 5.0 33 35
r 0.37 1 2 cbr 1000 ------- 2 1.0 5.0 19 20
+ 0.37 2 3 cbr 1000 ------- 2 1.0 5.0 19 20
- 0.37 1 2 cbr 1000 ------- 2 1.0 5.0 27 29
- 0.372 2 3 cbr 1000 ------- 2 1.0 5.0 12 13
+ 0.372 1 2 cbr 1000 ------- 2 1.0 5.0 34 36
r 0.378 3 5 cbr 1000 ------- 2 1.0 5.0 2 3
r 0.378 2 3 cbr 1000 ------- 2 1.0 5.0 7 8
+ 0.378 3 5 cbr 1000 ------- 2 1.0 5.0 7 8
- 0.378 3 5 cbr 1000 ------- 2 1.0 5.0 7 8
r 0.38 1 2 cbr 1000 ------- 2 1.0 5.0 20 21
+ 0.38 2 3 cbr 1000 ------- 2 1.0 5.0 20 21
- 0.38 1 2 cbr 1000 ------- 2 1.0 5.0 28 30
+ 0.38 1 2 cbr 1000 ------- 2 1.0 5.0 35 37
r 0.38184 4 3 ack 40 ------- 1 4.0 0.0 0 28
+ 0.38184 3 2 ack 40 ------- 1 4.0 0.0 0 28
- 0.38184 3 2 ack 40 ------- 1 4.0 0.0 0 28
- 0.388 2 3 cbr 1000 ------- 2 1.0 5.0 13 14
+ 0.388 1 2 cbr 1000 ------- 2 1.0 5.0 36 38
r 0.39 1 2 cbr 1000 ------- 2 1.0 5.0 21 22
+ 0.39 2 3 cbr 1000 ------- 2 1.0 5.0 21 22
- 0.39 1 2 cbr 1000 ------- 2 1.0 5.0 29 31
r 0.394 3 5 cbr 1000 ------- 2 1.0 5.0 3 4
r 0.394 2 3 cbr 1000 ------- 2 1.0 5.0 8 9
+ 0.394 3 5 cbr 1000 ------- 2 1.0 5.0 8 9
- 0.394 3 5 cbr 1000 ------- 2 1.0 5.0 8 9
+ 0.396 1 2 cbr 1000 ------- 2 1.0 5.0 37 39
r 0.4 1 2 cbr 1000 ------- 2 1.0 5.0 22 23
+ 0.4 2 3 cbr 1000 ------- 2 1.0 5.0 22 23
- 0.4 1 2 cbr 1000 ------- 2 1.0 5.0 30 32
- 0.404 2 3 cbr 1000 ------- 2 1.0 5.0 14 15
+ 0.404 1 2 cbr 1000 ------- 2 1.0 5.0 38 40
r 0.41 3 5 cbr 1000 ------- 2 1.0 5.0 4 5
r 0.41 2 3 cbr 1000 ------- 2 1.0 5.0 9 10
+ 0.41 3 5 cbr 1000 ------- 2 1.0 5.0 9 10
- 0.41 3 5 cbr 1000 ------- 2 1.0 5.0 9 10
r 0.41 1 2 cbr 1000 ------- 2 1.0 5.0 23 24
+ 0.41 2 3 cbr 1000 ------- 2 1.0 5.0 23 24
- 0.41 1 2 cbr 1000 ------- 2 1.0 5.0 31 33
+ 0.412 1 2 cbr 1000 ------- 2 1.0 5.0 39 41
r 0.42 1 2 cbr 1000 ------- 2 1.0 5.0 24 25
+ 0.42 2 3 cbr 1000 ------- 2 1.0 5.0 24 25
d 0.42 2 3 cbr 1000 ------- 2 1.0 5.0 24 25
- 0.42 2 3 cbr 1000 ------- 2 1.0 5.0 15 16
- 0.42 1 2 cbr 1000 ------- 2 1.0 5.0 32 34
+ 0.42 1 2 cbr 1000 ------- 2 1.0 5.0 40 42
r 0.426 3 5 cbr 1000 ------- 2 1.0 5.0 5 6
r 0.426 2 3 cbr 1000 ------- 2 1.0 5.0 10 11
+ 0.426 3 5 cbr 1000 ------- 2 1.0 5.0 10 11
- 0.426 3 5 cbr 1000 ------- 2 1.0 5.0 10 11
+ 0.428 1 2 cbr 1000 ------- 2 1.0 5.0 41 43
r 0.43 1 2 cbr 1000 ------- 2 1.0 5.0 25 26
+ 0.43 2 3 cbr 1000 ------- 2 1.0 5.0 25 26
- 0.43 1 2 cbr 1000 ------- 2 1.0 5.0 33 35
- 0.436 2 3 cbr 1000 ------- 2 1.0 5.0 16 17
+ 0.436 1 2 cbr 1000 ------- 2 1.0 5.0 42 44
r 0.44 1 2 cbr 1000 ------- 2 1.0 5.0 26 27
+ 0.44 2 3 cbr 1000 ------- 2 1.0 5.0 26 27
- 0.44 1 2 cbr 1000 ------- 2 1.0 5.0 34 36
r 0.442 3 5 cbr 1000 ------- 2 1.0 5.0 6 7
r 0.442 2 3 cbr 1000 ------- 2 1.0 5.0 11 12
+ 0.442 3 5 cbr 1000 ------- 2 1.0 5.0 11 12
- 0.442 3 5 cbr 1000 ------- 2 1.0 5.0 11 12
+ 0.444 1 2 cbr 1000 ------- 2 1.0 5.0 43 45
r 0.45 1 2 cbr 1000 ------- 2 1.0 5.0 27 29
+ 0.45 2 3 cbr 1000 ------- 2 1.0 5.0 27 29
d 0.45 2 3 cbr 1000 ------- 2 1.0 5.0 27 29
- 0.45 1 2 cbr 1000 ------- 2 1.0 5.0 35 37
- 0.452 2 3 cbr 1000 ------- 2 1.0 5.0 17 18
+ 0.452 1 2 cbr 1000 ------- 2 1.0 5.0 44 46
r 0.45248 3 2 ack 40 ------- 1 4.0 0.0 0 28
+ 0.45248 2 0 ack 40 ------- 1 4.0 0.0 0 28
- 0.45248 2 0 ack 40 ------- 1 4.0 0.0 0 28
r 0.458 3 5 cbr 1000 ------- 2 1.0 5.0 7 8
r 0.458 2 3 cbr 1000 ------- 2 1.0 5.0 12 13
+ 0.458 3 5 cbr 1000 ------- 2 1.0 5.0 12 13
- 0.458 3 5 cbr 1000 ------- 2 1.0 5.0 12 13
r 0.46 1 2 cbr 1000 ------- 2 1.0 5.0 28 30
+ 0.46 2 3 cbr 1000 ------- 2 1.0 5.0 28 30
- 0.46 1 2 cbr 1000 ------- 2 1.0 5.0 36 38
+ 0.46 1 2 cbr 1000 ------- 2 1.0 5.0 45 47
- 0.468 2 3 cbr 1000 ------- 2 1.0 5.0 18 19
+ 0.468 1 2 cbr 1000 ------- 2 1.0 5.0 46 48
r 0.47 1 2 cbr 1000 ------- 2 1.0 5.0 29 31
+ 0.47 2 3 cbr 1000 ------- 2 1.0 5.0 29 31
- 0.47 1 2 cbr 1000 ------- 2 1.0 5.0 37 39
r 0.474 3 5 cbr 1000 ------- 2 1.0 5.0 8 9
r 0.474 2 3 cbr 1000 ------- 2 1.0 5.0 13 14
+ 0.474 3 5 cbr 1000 ------- 2 1.0 5.0 13 14
- 0.474 3 5 cbr 1000 ------- 2 1.0 5.0 13 14
+ 0.476 1 2 cbr 1000 ------- 2 1.0 5.0 47 49
r 0.48 1 2 cbr 1000 ------- 2 1.0 5.0 30 32
+ 0.48 2 3 cbr 1000 ------- 2 1.0 5.0 30 32
d 0.48 2 3 cbr 1000 ------- 2 1.0 5.0 30 32
- 0.48 1 2 cbr 1000 ------- 2 1.0 5.0 38 40
- 0.484 2 3 cbr 1000 ------- 2 1.0 5.0 19 20
+ 0.484 1 2 cbr 1000 ------- 2 1.0 5.0 48 50
r 0.49 3 5 cbr 1000 ------- 2 1.0 5.0 9 10
r 0.49 2 3 cbr 1000 ------- 2 1.0 5.0 14 15
+ 0.49 3 5 cbr 1000 ------- 2 1.0 5.0 14 15
- 0.49 3 5 cbr 1000 ------- 2 1.0 5.0 14 15
r 0.49 1 2 cbr 1000 ------- 2 1.0 5.0 31 33
+ 0.49 2 3 cbr 1000 ------- 2 1.0 5.0 31 33
- 0.49 1 2 cbr 1000 ------- 2 1.0 5.0 39 41
+ 0.492 1 2 cbr 1000 ------- 2 1.0 5.0 49 51
r 0.5 1 2 cbr 1000 ------- 2 1.0 5.0 32 34
+ 0.5 2 3 cbr 1000 ------- 2 1.0 5.0 32 34
d 0.5 2 3 cbr 1000 ------- 2 1.0 5.0 32 34
- 0.5 2 3 cbr 1000 ------- 2 1.0 5.0 20 21
- 0.5 1 2 cbr 1000 ------- 2 1.0 5.0 40 42
+ 0.5 1 2 cbr 1000 ------- 2 1.0 5.0 50 52
r 0.506 3 5 cbr 1000 ------- 2 1.0 5.0 10 11
r 0.506 2 3 cbr 1000 ------- 2 1.0 5.0 15 16
+ 0.506 3 5 cbr 1000 ------- 2 1.0 5.0 15 16
- 0.506 3 5 cbr 1000 ------- 2 1.0 5.0 15 16
+ 0.508 1 2 cbr 1000 ------- 2 1.0 5.0 51 53
r 0.51 1 2 cbr 1000 ------- 2 1.0 5.0 33 35
+ 0.51 2 3 cbr 1000 ------- 2 1.0 5.0 33 35
- 0.51 1 2 cbr 1000 ------- 2 1.0 5.0 41 43
- 0.516 2 3 cbr 1000 ------- 2 1.0 5.0 21 22
+ 0.516 1 2 cbr 1000 ------- 2 1.0 5.0 52 54
r 0.52 1 2 cbr 1000 ------- 2 1.0 5.0 34 36
+ 0.52 2 3 cbr 1000 ------- 2 1.0 5.0 34 36
- 0.52 1 2 cbr 1000 ------- 2 1.0 5.0 42 44
r 0.522 3 5 cbr 1000 ------- 2 1.0 5.0 11 12
r 0.522 2 3 cbr 1000 ------- 2 1.0 5.0 16 17
+ 0.522 3 5 cbr 1000 ------- 2 1.0 5.0 16 17
- 0.522 3 5 cbr 1000 ------- 2 1.0 5.0 16 17
r 0.52288 2 0 ack 40 ------- 1 4.0 0.0 0 28
+ 0.52288 0 2 tcp 1040 ------- 1 0.0 4.0 1 55
- 0.52288 0 2 tcp 1040 ------- 1 0.0 4.0 1 55
+ 0.52288 0 2 tcp 1040 ------- 1 0.0 4.0 2 56
+ 0.524 1 2 cbr 1000 ------- 2 1.0 5.0 53 57
r 0.53 1 2 cbr 1000 ------- 2 1.0 5.0 35 37
+ 0.53 2 3 cbr 1000 ------- 2 1.0 5.0 35 37
d 0.53 2 3 cbr 1000 ------- 2 1.0 5.0 35 37
- 0.53 1 2 cbr 1000 ------- 2 1.0 5.0 43 45
- 0.532 2 3 cbr 1000 ------- 2 1.0 5.0 22 23
+ 0.532 1 2 cbr 1000 ------- 2 1.0 5.0 54 58
- 0.53328 0 2 tcp 1040 ------- 1 0.0 4.0 2 56
r 0.538 3 5 cbr 1000 ------- 2 1.0 5.0 12 13
r 0.538 2 3 cbr 1000 ------- 2 1.0 5.0 17 18
+ 0.538 3 5 cbr 1000 ------- 2 1.0 5.0 17 18
- 0.538 3 5 cbr 1000 ------- 2 1.0 5.0 17 18
r 0.54 1 2 cbr 1000 ------- 2 1.0 5.0 36 38
+ 0.54 2 3 cbr 1000 ------- 2 1.0 5.0 36 38
- 0.54 1 2 cbr 1000 ------- 2 1.0 5.0 44 46
+ 0.54 1 2 cbr 1000 ------- 2 1.0 5.0 55 59
- 0.548 2 3 cbr 1000 ------- 2 1.0 5.0 23 24
+ 0.548 1 2 cbr 1000 ------- 2 1.0 5.0 56 60
r 0.55 1 2 cbr 1000 ------- 2 1.0 5.0 37 39
+ 0.55 2 3 cbr 1000 ------- 2 1.0 5.0 37 39
- 0.55 1 2 cbr 1000 ------- 2 1.0 5.0 45 47
r 0.554 3 5 cbr 1000 ------- 2 1.0 5.0 13 14
r 0.554 2 3 cbr 1000 ------- 2 1.0 5.0 18 19
+ 0.554 3 5 cbr 1000 ------- 2 1.0 5.0 18 19
- 0.554 3 5 cbr 1000 ------- 2 1.0 5.0 18 19
+ 0.556 1 2 cbr 1000 ------- 2 1.0 5.0 57 61
r 0.56 1 2 cbr 1000 ------- 2 1.0 5.0 38 40
+ 0.56 2 3 cbr 1000 ------- 2 1.0 5.0 38 40
d 0.56 2 3 cbr 1000 ------- 2 1.0 5.0 38 40
- 0.56 1 2 cbr 1000 ------- 2 1.0 5.0 46 48
- 0.564 2 3 cbr 1000 ------- 2 1.0 5.0 25 26
+ 0.564 1 2 cbr 1000 ------- 2 1.0 5.0 58 62
r 0.57 3 5 cbr 1000 ------- 2 1.0 5.0 14 15
r 0.57 2 3 cbr 1000 ------- 2 1.0 5.0 19 20
+ 0.57 3 5 cbr 1000 ------- 2 1.0 5.0 19 20
- 0.57 3 5 cbr 1000 ------- 2 1.0 5.0 19 20
r 0.57 1 2 cbr 1000 ------- 2 1.0 5.0 39 41
+ 0.57 2 3 cbr 1000 ------- 2 1.0 5.0 39 41
- 0.57 1 2 cbr 1000 ------- 2 1.0 5.0 47 49
+ 0.572 1 2 cbr 1000 ------- 2 1.0 5.0 59 63
r 0.58 1 2 cbr 1000 ------- 2 1.0 5.0 40 42
+ 0.58 2 3 cbr 1000 ------- 2 1.0 5.0 40 42
d 0.58 2 3 cbr 1000 ------- 2 1.0 5.0 40 42
- 0.58 2 3 cbr 1000 ------- 2 1.0 5.0 26 27
- 0.58 1 2 cbr 1000 ------- 2 1.0 5.0 48 50
+ 0.58 1 2 cbr 1000 ------- 2 1.0 5.0 60 64
r 0.586 2 3 cbr 1000 ------- 2 1.0 5.0 20 21
+ 0.586 3 5 cbr 1000 ------- 2 1.0 5.0 20 21
- 0.586 3 5 cbr 1000 ------- 2 1.0 5.0 20 21
r 0.586 3 5 cbr 1000 ------- 2 1.0 5.0 15 16
+ 0.588 1 2 cbr 1000 ------- 2 1.0 5.0 61 65
r 0.59 1 2 cbr 1000 ------- 2 1.0 5.0 41 43
+ 0.59 2 3 cbr 1000 ------- 2 1.0 5.0 41 43
- 0.59 1 2 cbr 1000 ------- 2 1.0 5.0 49 51
- 0.596 2 3 cbr 1000 ------- 2 1.0 5.0 28 30
+ 0.596 1 2 cbr 1000 ------- 2 1.0 5.0 62 66
r 0.6 1 2 cbr 1000 ------- 2 1.0 5.0 42 44
+ 0.6 2 3 cbr 1000 ------- 2 1.0 5.0 42 44
- 0.6 1 2 cbr 1000 ------- 2 1.0 5.0 50 52
r 0.602 2 3 cbr 1000 ------- 2 1.0 5.0 21 22
+ 0.602 3 5 cbr 1000 ------- 2 1.0 5.0 21 22
- 0.602 3 5 cbr 1000 ------- 2 1.0 5.0 21 22
r 0.602 3 5 cbr 1000 ------- 2 1.0 5.0 16 17
r 0.60328 0 2 tcp 1040 ------- 1 0.0 4.0 1 55
+ 0.60328 2 3 tcp 1040 ------- 1 0.0 4.0 1 55
d 0.60328 2 3 tcp 1040 ------- 1 0.0 4.0 1 55
+ 0.604 1 2 cbr 1000 ------- 2 1.0 5.0 63 67
r 0.61 1 2 cbr 1000 ------- 2 1.0 5.0 43 45
+ 0.61 2 3 cbr 1000 ------- 2 1.0 5.0 43 45
d 0.61 2 3 cbr 1000 ------- 2 1.0 5.0 43 45
- 0.61 1 2 cbr 1000 ------- 2 1.0 5.0 51 53
- 0.612 2 3 cbr 1000 ------- 2 1.0 5.0 29 31
+ 0.612 1 2 cbr 1000 ------- 2 1.0 5.0 64 68
r 0.61368 0 2 tcp 1040 ------- 1 0.0 4.0 2 56
+ 0.61368 2 3 tcp 1040 ------- 1 0.0 4.0 2 56
r 0.618 2 3 cbr 1000 ------- 2 1.0 5.0 22 23
+ 0.618 3 5 cbr 1000 ------- 2 1.0 5.0 22 23
- 0.618 3 5 cbr 1000 ------- 2 1.0 5.0 22 23
r 0.618 3 5 cbr 1000 ------- 2 1.0 5.0 17 18
r 0.62 1 2 cbr 1000 ------- 2 1.0 5.0 44 46
+ 0.62 2 3 cbr 1000 ------- 2 1.0 5.0 44 46
d 0.62 2 3 cbr 1000 ------- 2 1.0 5.0 44 46
- 0.62 1 2 cbr 1000 ------- 2 1.0 5.0 52 54
+ 0.62 1 2 cbr 1000 ------- 2 1.0 5.0 65 69
- 0.628 2 3 cbr 1000 ------- 2 1.0 5.0 31 33
+ 0.628 1 2 cbr 1000 ------- 2 1.0 5.0 66 70
r 0.63 1 2 cbr 1000 ------- 2 1.0 5.0 45 47
+ 0.63 2 3 cbr 1000 ------- 2 1.0 5.0 45 47
- 0.63 1 2 cbr 1000 ------- 2 1.0 5.0 53 57
r 0.634 2 3 cbr 1000 ------- 2 1.0 5.0 23 24
+ 0.634 3 5 cbr 1000 ------- 2 1.0 5.0 23 24
- 0.634 3 5 cbr 1000 ------- 2 1.0 5.0 23 24
r 0.634 3 5 cbr 1000 ------- 2 1.0 5.0 18 19
+ 0.636 1 2 cbr 1000 ------- 2 1.0 5.0 67 71
r 0.64 1 2 cbr 1000 ------- 2 1.0 5.0 46 48
+ 0.64 2 3 cbr 1000 ------- 2 1.0 5.0 46 48
d 0.64 2 3 cbr 1000 ------- 2 1.0 5.0 46 48
- 0.64 1 2 cbr 1000 ------- 2 1.0 5.0 54 58
- 0.644 2 3 cbr 1000 ------- 2 1.0 5.0 33 35
+ 0.644 1 2 cbr 1000 ------- 2 1.0 5.0 68 72
r 0.65 2 3 cbr 1000 ------- 2 1.0 5.0 25 26
+ 0.65 3 5 cbr 1000 ------- 2 1.0 5.0 25 26
- 0.65 3 5 cbr 1000 ------- 2 1.0 5.0 25 26
r 0.65 3 5 cbr 1000 ------- 2 1.0 5.0 19 20
r 0.65 1 2 cbr 1000 ------- 2 1.0 5.0 47 49
+ 0.65 2 3 cbr 1000 ------- 2 1.0 5.0 47 49
- 0.65 1 2 cbr 1000 ------- 2 1.0 5.0 55 59
+ 0.652 1 2 cbr 1000 ------- 2 1.0 5.0 69 73
r 0.66 1 2 cbr 1000 ------- 2 1.0 5.0 48 50
+ 0.66 2 3 cbr 1000 ------- 2 1.0 5.0 48 50
d 0.66 2 3 cbr 1000 ------- 2 1.0 5.0 48 50
- 0.66 2 3 cbr 1000 ------- 2 1.0 5.0 34 36
- 0.66 1 2 cbr 1000 ------- 2 1.0 5.0 56 60
+ 0.66 1 2 cbr 1000 ------- 2 1.0 5.0 70 74
r 0.666 3 5 cbr 1000 ------- 2 1.0 5.0 20 21
r 0.666 2 3 cbr 1000 ------- 2 1.0 5.0 26 27
+ 0.666 3 5 cbr 1000 ------- 2 1.0 5.0 26 27
- 0.666 3 5 cbr 1000 ------- 2 1.0 5.0 26 27
+ 0.668 1 2 cbr 1000 ------- 2 1.0 5.0 71 75
r 0.67 1 2 cbr 1000 ------- 2 1.0 5.0 49 51
+ 0.67 2 3 cbr 1000 ------- 2 1.0 5.0 49 51
- 0.67 1 2 cbr 1000 ------- 2 1.0 5.0 57 61
- 0.676 2 3 cbr 1000 ------- 2 1.0 5.0 36 38
+ 0.676 1 2 cbr 1000 ------- 2 1.0 5.0 72 76
r 0.68 1 2 cbr 1000 ------- 2 1.0 5.0 50 52
+ 0.68 2 3 cbr 1000 ------- 2 1.0 5.0 50 52
- 0.68 1 2 cbr 1000 ------- 2 1.0 5.0 58 62
r 0.682 3 5 cbr 1000 ------- 2 1.0 5.0 21 22
r 0.682 2 3 cbr 1000 ------- 2 1.0 5.0 28 30
+ 0.682 3 5 cbr 1000 ------- 2 1.0 5.0 28 30
- 0.682 3 5 cbr 1000 ------- 2 1.0 5.0 28 30
+ 0.684 1 2 cbr 1000 ------- 2 1.0 5.0 73 77
r 0.69 1 2 cbr 1000 ------- 2 1.0 5.0 51 53
+ 0.69 2 3 cbr 1000 ------- 2 1.0 5.0 51 53
d 0.69 2 3 cbr 1000 ------- 2 1.0 5.0 51 53
- 0.69 1 2 cbr 1000 ------- 2 1.0 5.0 59 63
- 0.692 2 3 cbr 1000 ------- 2 1.0 5.0 37 39
+ 0.692 1 2 cbr 1000 ------- 2 1.0 5.0 74 78
r 0.698 3 5 cbr 1000 ------- 2 1.0 5.0 22 23
r 0.698 2 3 cbr 1000 ------- 2 1.0 5.0 29 31
+ 0.698 3 5 cbr 1000 ------- 2 1.0 5.0 29 31
- 0.698 3 5 cbr 1000 ------- 2 1.0 5.0 29 31
r 0.7 1 2 cbr 1000 ------- 2 1.0 5.0 52 54
+ 0.7 2 3 cbr 1000 ------- 2 1.0 5.0 52 54
- 0.7 1 2 cbr 1000 ------- 2 1.0 5.0 60 64
+ 0.7 1 2 cbr 1000 ------- 2 1.0 5.0 75 79
- 0.708 2 3 cbr 1000 ------- 2 1.0 5.0 39 41
+ 0.708 1 2 cbr 1000 ------- 2 1.0 5.0 76 80
r 0.71 1 2 cbr 1000 ------- 2 1.0 5.0 53 57
+ 0.71 2 3 cbr 1000 ------- 2 1.0 5.0 53 57
- 0.71 1 2 cbr 1000 ------- 2 1.0 5.0 61 65
r 0.714 3 5 cbr 1000 ------- 2 1.0 5.0 23 24
r 0.714 2 3 cbr 1000 ------- 2 1.0 5.0 31 33
+ 0.714 3 5 cbr 1000 ------- 2 1.0 5.0 31 33
- 0.714 3 5 cbr 1000 ------- 2 1.0 5.0 31 33
+ 0.716 1 2 cbr 1000 ------- 2 1.0 5.0 77 81
r 0.72 1 2 cbr 1000 ------- 2 1.0 5.0 54 58
+ 0.72 2 3 cbr 1000 ------- 2 1.0 5.0 54 58
d 0.72 2 3 cbr 1000 ------- 2 1.0 5.0 54 58
- 0.72 1 2 cbr 1000 ------- 2 1.0 5.0 62 66
- 0.724 2 3 cbr 1000 ------- 2 1.0 5.0 41 43
+ 0.724 1 2 cbr 1000 ------- 2 1.0 5.0 78 82
r 0.73 3 5 cbr 1000 ------- 2 1.0 5.0 25 26
r 0.73 2 3 cbr 1000 ------- 2 1.0 5.0 33 35
+ 0.73 3 5 cbr 1000 ------- 2 1.0 5.0 33 35
- 0.73 3 5 cbr 1000 ------- 2 1.0 5.0 33 35
r 0.73 1 2 cbr 1000 ------- 2 1.0 5.0 55 59
+ 0.73 2 3 cbr 1000 ------- 2 1.0 5.0 55 59
- 0.73 1 2 cbr 1000 ------- 2 1.0 5.0 63 67
+ 0.732 1 2 cbr 1000 ------- 2 1.0 5.0 79 83
r 0.74 1 2 cbr 1000 ------- 2 1.0 5.0 56 60
+ 0.74 2 3 cbr 1000 ------- 2 1.0 5.0 56 60
d 0.74 2 3 cbr 1000 ------- 2 1.0 5.0 56 60
- 0.74 2 3 cbr 1000 ------- 2 1.0 5.0 42 44
- 0.74 1 2 cbr 1000 ------- 2 1.0 5.0 64 68
+ 0.74 1 2 cbr 1000 ------- 2 1.0 5.0 80 84
r 0.746 3 5 cbr 1000 ------- 2 1.0 5.0 26 27
r 0.746 2 3 cbr 1000 ------- 2 1.0 5.0 34 36
+ 0.746 3 5 cbr 1000 ------- 2 1.0 5.0 34 36
- 0.746 3 5 cbr 1000 ------- 2 1.0 5.0 34 36
+ 0.748 1 2 cbr 1000 ------- 2 1.0 5.0 81 85
r 0.75 1 2 cbr 1000 ------- 2 1.0 5.0 57 61
+ 0.75 2 3 cbr 1000 ------- 2 1.0 5.0 57 61
- 0.75 1 2 cbr 1000 ------- 2 1.0 5.0 65 69
- 0.756 2 3 tcp 1040 ------- 1 0.0 4.0 2 56
+ 0.756 1 2 cbr 1000 ------- 2 1.0 5.0 82 86
r 0.76 1 2 cbr 1000 ------- 2 1.0 5.0 58 62
+ 0.76 2 3 cbr 1000 ------- 2 1.0 5.0 58 62
- 0.76 1 2 cbr 1000 ------- 2 1.0 5.0 66 70
r 0.762 3 5 cbr 1000 ------- 2 1.0 5.0 28 30
r 0.762 2 3 cbr 1000 ------- 2 1.0 5.0 36 38
+ 0.762 3 5 cbr 1000 ------- 2 1.0 5.0 36 38
- 0.762 3 5 cbr 1000 ------- 2 1.0 5.0 36 38
+ 0.764 1 2 cbr 1000 ------- 2 1.0 5.0 83 87
r 0.77 1 2 cbr 1000 ------- 2 1.0 5.0 59 63
+ 0.77 2 3 cbr 1000 ------- 2 1.0 5.0 59 63
d 0.77 2 3 cbr 1000 ------- 2 1.0 5.0 59 63
- 0.77 1 2 cbr 1000 ------- 2 1.0 5.0 67 71
+ 0.772 1 2 cbr 1000 ------- 2 1.0 5.0 84 88
- 0.77264 2 3 cbr 1000 ------- 2 1.0 5.0 45 47
r 0.778 3 5 cbr 1000 ------- 2 1.0 5.0 29 31
r 0.778 2 3 cbr 1000 ------- 2 1.0 5.0 37 39
+ 0.778 3 5 cbr 1000 ------- 2 1.0 5.0 37 39
- 0.778 3 5 cbr 1000 ------- 2 1.0 5.0 37 39
r 0.78 1 2 cbr 1000 ------- 2 1.0 5.0 60 64
+ 0.78 2 3 cbr 1000 ------- 2 1.0 5.0 60 64
- 0.78 1 2 cbr 1000 ------- 2 1.0 5.0 68 72
+ 0.78 1 2 cbr 1000 ------- 2 1.0 5.0 85 89
+ 0.788 1 2 cbr 1000 ------- 2 1.0 5.0 86 90
- 0.78864 2 3 cbr 1000 ------- 2 1.0 5.0 47 49
r 0.79 1 2 cbr 1000 ------- 2 1.0 5.0 61 65
+ 0.79 2 3 cbr 1000 ------- 2 1.0 5.0 61 65
- 0.79 1 2 cbr 1000 ------- 2 1.0 5.0 69 73
r 0.794 3 5 cbr 1000 ------- 2 1.0 5.0 31 33
r 0.794 2 3 cbr 1000 ------- 2 1.0 5.0 39 41
+ 0.794 3 5 cbr 1000 ------- 2 1.0 5.0 39 41
- 0.794 3 5 cbr 1000 ------- 2 1.0 5.0 39 41
+ 0.796 1 2 cbr 1000 ------- 2 1.0 5.0 87 91
r 0.8 1 2 cbr 1000 ------- 2 1.0 5.0 62 66
+ 0.8 2 3 cbr 1000 ------- 2 1.0 5.0 62 66
d 0.8 2 3 cbr 1000 ------- 2 1.0 5.0 62 66
- 0.8 1 2 cbr 1000 ------- 2 1.0 5.0 70 74
+ 0.804 1 2 cbr 1000 ------- 2 1.0 5.0 88 92
- 0.80464 2 3 cbr 1000 ------- 2 1.0 5.0 49 51
r 0.81 3 5 cbr 1000 ------- 2 1.0 5.0 33 35
r 0.81 2 3 cbr 1000 ------- 2 1.0 5.0 41 43
+ 0.81 3 5 cbr 1000 ------- 2 1.0 5.0 41 43
- 0.81 3 5 cbr 1000 ------- 2 1.0 5.0 41 43
r 0.81 1 2 cbr 1000 ------- 2 1.0 5.0 63 67
+ 0.81 2 3 cbr 1000 ------- 2 1.0 5.0 63 67
- 0.81 1 2 cbr 1000 ------- 2 1.0 5.0 71 75
+ 0.812 1 2 cbr 1000 ------- 2 1.0 5.0 89 93
r 0.82 1 2 cbr 1000 ------- 2 1.0 5.0 64 68
+ 0.82 2 3 cbr 1000 ------- 2 1.0 5.0 64 68
d 0.82 2 3 cbr 1000 ------- 2 1.0 5.0 64 68
- 0.82 1 2 cbr 1000 ------- 2 1.0 5.0 72 76
+ 0.82 1 2 cbr 1000 ------- 2 1.0 5.0 90 94
- 0.82064 2 3 cbr 1000 ------- 2 1.0 5.0 50 52
r 0.826 3 5 cbr 1000 ------- 2 1.0 5.0 34 36
r 0.826 2 3 cbr 1000 ------- 2 1.0 5.0 42 44
+ 0.826 3 5 cbr 1000 ------- 2 1.0 5.0 42 44
- 0.826 3 5 cbr 1000 ------- 2 1.0 5.0 42 44
+ 0.828 1 2 cbr 1000 ------- 2 1.0 5.0 91 95
r 0.83 1 2 cbr 1000 ------- 2 1.0 5.0 65 69
+ 0.83 2 3 cbr 1000 ------- 2 1.0 5.0 65 69
- 0.83 1 2 cbr 1000 ------- 2 1.0 5.0 73 77
+ 0.836 1 2 cbr 1000 ------- 2 1.0 5.0 92 96
- 0.83664 2 3 cbr 1000 ------- 2 1.0 5.0 52 54
r 0.84 1 2 cbr 1000 ------- 2 1.0 5.0 66 70
+ 0.84 2 3 cbr 1000 ------- 2 1.0 5.0 66 70
- 0.84 1 2 cbr 1000 ------- 2 1.0 5.0 74 78
r 0.842 3 5 cbr 1000 ------- 2 1.0 5.0 36 38
r 0.84264 2 3 tcp 1040 ------- 1 0.0 4.0 2 56
+ 0.84264 3 4 tcp 1040 ------- 1 0.0 4.0 2 56
- 0.84264 3 4 tcp 1040 ------- 1 0.0 4.0 2 56
+ 0.844 1 2 cbr 1000 ------- 2 1.0 5.0 93 97
r 0.85 1 2 cbr 1000 ------- 2 1.0 5.0 67 71
+ 0.85 2 3 cbr 1000 ------- 2 1.0 5.0 67 71
d 0.85 2 3 cbr 1000 ------- 2 1.0 5.0 67 71
- 0.85 1 2 cbr 1000 ------- 2 1.0 5.0 75 79
+ 0.852 1 2 cbr 1000 ------- 2 1.0 5.0 94 98
- 0.85264 2 3 cbr 1000 ------- 2 1.0 5.0 53 57
r 0.858 3 5 cbr 1000 ------- 2 1.0 5.0 37 39
r 0.85864 2 3 cbr 1000 ------- 2 1.0 5.0 45 47
+ 0.85864 3 5 cbr 1000 ------- 2 1.0 5.0 45 47
- 0.85864 3 5 cbr 1000 ------- 2 1.0 5.0 45 47
r 0.86 1 2 cbr 1000 ------- 2 1.0 5.0 68 72
+ 0.86 2 3 cbr 1000 ------- 2 1.0 5.0 68 72
- 0.86 1 2 cbr 1000 ------- 2 1.0 5.0 76 80
+ 0.86 1 2 cbr 1000 ------- 2 1.0 5.0 95 99
+ 0.868 1 2 cbr 1000 ------- 2 1.0 5.0 96 100
- 0.86864 2 3 cbr 1000 ------- 2 1.0 5.0 55 59
r 0.87 1 2 cbr 1000 ------- 2 1.0 5.0 69 73
+ 0.87 2 3 cbr 1000 ------- 2 1.0 5.0 69 73
- 0.87 1 2 cbr 1000 ------- 2 1.0 5.0 77 81
r 0.874 3 5 cbr 1000 ------- 2 1.0 5.0 39 41
r 0.87464 2 3 cbr 1000 ------- 2 1.0 5.0 47 49
+ 0.87464 3 5 cbr 1000 ------- 2 1.0 5.0 47 49
- 0.87464 3 5 cbr 1000 ------- 2 1.0 5.0 47 49
+ 0.876 1 2 cbr 1000 ------- 2 1.0 5.0 97 101
r 0.88 1 2 cbr 1000 ------- 2 1.0 5.0 70 74
+ 0.88 2 3 cbr 1000 ------- 2 1.0 5.0 70 74
d 0.88 2 3 cbr 1000 ------- 2 1.0 5.0 70 74
- 0.88 1 2 cbr 1000 ------- 2 1.0 5.0 78 82
+ 0.884 1 2 cbr 1000 ------- 2 1.0 5.0 98 102
- 0.88464 2 3 cbr 1000 ------- 2 1.0 5.0 57 61
r 0.89 3 5 cbr 1000 ------- 2 1.0 5.0 41 43
r 0.89 1 2 cbr 1000 ------- 2 1.0 5.0 71 75
+ 0.89 2 3 cbr 1000 ------- 2 1.0 5.0 71 75
- 0.89 1 2 cbr 1000 ------- 2 1.0 5.0 79 83
r 0.89064 2 3 cbr 1000 ------- 2 1.0 5.0 49 51
+ 0.89064 3 5 cbr 1000 ------- 2 1.0 5.0 49 51
- 0.89064 3 5 cbr 1000 ------- 2 1.0 5.0 49 51
+ 0.892 1 2 cbr 1000 ------- 2 1.0 5.0 99 103
r 0.9 1 2 cbr 1000 ------- 2 1.0 5.0 72 76
+ 0.9 2 3 cbr 1000 ------- 2 1.0 5.0 72 76
d 0.9 2 3 cbr 1000 ------- 2 1.0 5.0 72 76
- 0.9 1 2 cbr 1000 ------- 2 1.0 5.0 80 84
+ 0.9 1 2 cbr 1000 ------- 2 1.0 5.0 100 104
- 0.90064 2 3 cbr 1000 ------- 2 1.0 5.0 58 62
r 0.906 3 5 cbr 1000 ------- 2 1.0 5.0 42 44
r 0.90664 2 3 cbr 1000 ------- 2 1.0 5.0 50 52
+ 0.90664 3 5 cbr 1000 ------- 2 1.0 5.0 50 52
- 0.90664 3 5 cbr 1000 ------- 2 1.0 5.0 50 52
+ 0.908 1 2 cbr 1000 ------- 2 1.0 5.0 101 105
r 0.91 1 2 cbr 1000 ------- 2 1.0 5.0 73 77
+ 0.91 2 3 cbr 1000 ------- 2 1.0 5.0 73 77
- 0.91 1 2 cbr 1000 ------- 2 1.0 5.0 81 85
+ 0.916 1 2 cbr 1000 ------- 2 1.0 5.0 102 106
- 0.91664 2 3 cbr 1000 ------- 2 1.0 5.0 60 64
r 0.92 1 2 cbr 1000 ------- 2 1.0 5.0 74 78
+ 0.92 2 3 cbr 1000 ------- 2 1.0 5.0 74 78
- 0.92 1 2 cbr 1000 ------- 2 1.0 5.0 82 86
r 0.92264 2 3 cbr 1000 ------- 2 1.0 5.0 52 54
+ 0.92264 3 5 cbr 1000 ------- 2 1.0 5.0 52 54
- 0.92264 3 5 cbr 1000 ------- 2 1.0 5.0 52 54
r 0.92304 3 4 tcp 1040 ------- 1 0.0 4.0 2 56
+ 0.92304 4 3 ack 40 ------- 1 4.0 0.0 0 107
- 0.92304 4 3 ack 40 ------- 1 4.0 0.0 0 107
+ 0.924 1 2 cbr 1000 ------- 2 1.0 5.0 103 108
r 0.93 1 2 cbr 1000 ------- 2 1.0 5.0 75 79
+ 0.93 2 3 cbr 1000 ------- 2 1.0 5.0 75 79
d 0.93 2 3 cbr 1000 ------- 2 1.0 5.0 75 79
- 0.93 1 2 cbr 1000 ------- 2 1.0 5.0 83 87
+ 0.932 1 2 cbr 1000 ------- 2 1.0 5.0 104 109
- 0.93264 2 3 cbr 1000 ------- 2 1.0 5.0 61 65
r 0.93864 3 5 cbr 1000 ------- 2 1.0 5.0 45 47
r 0.93864 2 3 cbr 1000 ------- 2 1.0 5.0 53 57
+ 0.93864 3 5 cbr 1000 ------- 2 1.0 5.0 53 57
- 0.93864 3 5 cbr 1000 ------- 2 1.0 5.0 53 57
r 0.94 1 2 cbr 1000 ------- 2 1.0 5.0 76 80
+ 0.94 2 3 cbr 1000 ------- 2 1.0 5.0 76 80
- 0.94 1 2 cbr 1000 ------- 2 1.0 5.0 84 88
+ 0.94 1 2 cbr 1000 ------- 2 1.0 5.0 105 110
+ 0.948 1 2 cbr 1000 ------- 2 1.0 5.0 106 111
- 0.94864 2 3 cbr 1000 ------- 2 1.0 5.0 63 67
r 0.95 1 2 cbr 1000 ------- 2 1.0 5.0 77 81
+ 0.95 2 3 cbr 1000 ------- 2 1.0 5.0 77 81
- 0.95 1 2 cbr 1000 ------- 2 1.0 5.0 85 89
r 0.95464 3 5 cbr 1000 ------- 2 1.0 5.0 47 49
r 0.95464 2 3 cbr 1000 ------- 2 1.0 5.0 55 59
+ 0.95464 3 5 cbr 1000 ------- 2 1.0 5.0 55 59
- 0.95464 3 5 cbr 1000 ------- 2 1.0 5.0 55 59
+ 0.956 1 2 cbr 1000 ------- 2 1.0 5.0 107 112
r 0.96 1 2 cbr 1000 ------- 2 1.0 5.0 78 82
+ 0.96 2 3 cbr 1000 ------- 2 1.0 5.0 78 82
d 0.96 2 3 cbr 1000 ------- 2 1.0 5.0 78 82
- 0.96 1 2 cbr 1000 ------- 2 1.0 5.0 86 90
+ 0.964 1 2 cbr 1000 ------- 2 1.0 5.0 108 113
- 0.96464 2 3 cbr 1000 ------- 2 1.0 5.0 65 69
r 0.97 1 2 cbr 1000 ------- 2 1.0 5.0 79 83
+ 0.97 2 3 cbr 1000 ------- 2 1.0 5.0 79 83
- 0.97 1 2 cbr 1000 ------- 2 1.0 5.0 87 91
r 0.97064 3 5 cbr 1000 ------- 2 1.0 5.0 49 51
r 0.97064 2 3 cbr 1000 ------- 2 1.0 5.0 57 61
+ 0.97064 3 5 cbr 1000 ------- 2 1.0 5.0 57 61
- 0.97064 3 5 cbr 1000 ------- 2 1.0 5.0 57 61
+ 0.972 1 2 cbr 1000 ------- 2 1.0 5.0 109 114
r 0.98 1 2 cbr 1000 ------- 2 1.0 5.0 80 84
+ 0.98 2 3 cbr 1000 ------- 2 1.0 5.0 80 84
d 0.98 2 3 cbr 1000 ------- 2 1.0 5.0 80 84
- 0.98 1 2 cbr 1000 ------- 2 1.0 5.0 88 92
+ 0.98 1 2 cbr 1000 ------- 2 1.0 5.0 110 115
- 0.98064 2 3 cbr 1000 ------- 2 1.0 5.0 66 70
r 0.98664 3 5 cbr 1000 ------- 2 1.0 5.0 50 52
r 0.98664 2 3 cbr 1000 ------- 2 1.0 5.0 58 62
+ 0.98664 3 5 cbr 1000 ------- 2 1.0 5.0 58 62
- 0.98664 3 5 cbr 1000 ------- 2 1.0 5.0 58 62
+ 0.988 1 2 cbr 1000 ------- 2 1.0 5.0 111 116
r 0.99 1 2 cbr 1000 ------- 2 1.0 5.0 81 85
+ 0.99 2 3 cbr 1000 ------- 2 1.0 5.0 81 85
- 0.99 1 2 cbr 1000 ------- 2 1.0 5.0 89 93
r 0.99344 4 3 ack 40 ------- 1 4.0 0.0 0 107
+ 0.99344 3 2 ack 40 ------- 1 4.0 0.0 0 107
- 0.99344 3 2 ack 40 ------- 1 4.0 0.0 0 107
+ 0.996 1 2 cbr 1000 ------- 2 1.0 5.0 112 117
- 0.99664 2 3 cbr 1000 ------- 2 1.0 5.0 68 72
r 1 1 2 cbr 1000 ------- 2 1.0 5.0 82 86
+ 1 2 3 cbr 1000 ------- 2 1.0 5.0 82 86
- 1 1 2 cbr 1000 ------- 2 1.0 5.0 90 94
r 1.00264 3 5 cbr 1000 ------- 2 1.0 5.0 52 54
r 1.00264 2 3 cbr 1000 ------- 2 1.0 5.0 60 64
+ 1.00264 3 5 cbr 1000 ------- 2 1.0 5.0 60 64
- 1.00264 3 5 cbr 1000 ------- 2 1.0 5.0 60 64
+ 1.004 1 2 cbr 1000 ------- 2 1.0 5.0 113 118
r 1.01 1 2 cbr 1000 ------- 2 1.0 5.0 83 87
+ 1.01 2 3 cbr 1000 ------- 2 1.0 5.0 83 87
d 1.01 2 3 cbr 1000 ------- 2 1.0 5.0 83 87
- 1.01 1 2 cbr 1000 ------- 2 1.0 5.0 91 95
+ 1.012 1 2 cbr 1000 ------- 2 1.0 5.0 114 119
- 1.01264 2 3 cbr 1000 ------- 2 1.0 5.0 69 73
r 1.01864 3 5 cbr 1000 ------- 2 1.0 5.0 53 57
r 1.01864 2 3 cbr 1000 ------- 2 1.0 5.0 61 65
+ 1.01864 3 5 cbr 1000 ------- 2 1.0 5.0 61 65
- 1.01864 3 5 cbr 1000 ------- 2 1.0 5.0 61 65
r 1.02 1 2 cbr 1000 ------- 2 1.0 5.0 84 88
+ 1.02 2 3 cbr 1000 ------- 2 1.0 5.0 84 88
- 1.02 1 2 cbr 1000 ------- 2 1.0 5.0 92 96
+ 1.02 1 2 cbr 1000 ------- 2 1.0 5.0 115 120
+ 1.028 1 2 cbr 1000 ------- 2 1.0 5.0 116 121